<?xml version="1.0" encoding="UTF-8"?>

<!-- generated on 2026-05-25T12:53:26.908814+08:00 by Eclipse SUMO GUI 1.26.0
<sumoConfiguration xmlns:xsi="http://www.w3.org/2001/XMLSchema-instance" xsi:noNamespaceSchemaLocation="http://sumo.dlr.de/xsd/sumoConfiguration.xsd">

    <input>
        <net-file value="C:\Users\mmmma\TrafficProject\final\baseline_cases\morning_baseline_case\initial8_network.net.xml"/>
        <route-files value="C:\Users\mmmma\TrafficProject\final\baseline_cases\morning_baseline_case\routes_morning.rou.xml"/>
        <additional-files value="C:\Users\mmmma\TrafficProject\final\baseline_cases\morning_baseline_case\detectors.add.xml"/>
    </input>

    <output>
        <tripinfo-output value="C:\Users\mmmma\TrafficProject\final\baseline_cases\morning_baseline_case\outputs_morning/tripinfo.xml"/>
        <edgedata-output value="C:\Users\mmmma\TrafficProject\final\baseline_cases\morning_baseline_case\outputs_morning/edge_data.xml"/>
    </output>

    <time>
        <begin value="0"/>
        <end value="3600"/>
    </time>

    <gui_only>
        <start value="true"/>
    </gui_only>

</sumoConfiguration>
-->

<detector xmlns:xsi="http://www.w3.org/2001/XMLSchema-instance" xsi:noNamespaceSchemaLocation="http://sumo.dlr.de/xsd/det_e2_file.xsd">
   <interval begin="0.00" end="60.00" id="queue_Lup_0" sampledSeconds="158.44" nVehEntered="16" nVehLeft="15" nVehSeen="16" meanSpeed="4.81" meanTimeLoss="6.94" meanOccupancy="19.84" maxOccupancy="45.52" meanMaxJamLengthInVehicles="1.15" meanMaxJamLengthInMeters="6.45" maxJamLengthInVehicles="4" maxJamLengthInMeters="24.86" jamLengthInVehiclesSum="69" jamLengthInMetersSum="386.90" meanHaltingDuration="12.50" maxHaltingDuration="24.00" haltingDurationSum="75.00" meanIntervalHaltingDuration="12.50" maxIntervalHaltingDuration="24.00" intervalHaltingDurationSum="75.00" startedHalts="6.00" meanVehicleNumber="2.82" maxVehicleNumber="6" />
   <interval begin="0.00" end="60.00" id="queue_Lup_1" sampledSeconds="91.61" nVehEntered="8" nVehLeft="8" nVehSeen="8" meanSpeed="3.27" meanTimeLoss="9.10" meanOccupancy="10.57" maxOccupancy="34.25" meanMaxJamLengthInVehicles="0.78" meanMaxJamLengthInMeters="4.32" maxJamLengthInVehicles="4" maxJamLengthInMeters="24.81" jamLengthInVehiclesSum="47" jamLengthInMetersSum="258.94" meanHaltingDuration="10.40" maxHaltingDuration="17.00" haltingDurationSum="52.00" meanIntervalHaltingDuration="10.40" maxIntervalHaltingDuration="17.00" intervalHaltingDurationSum="52.00" startedHalts="5.00" meanVehicleNumber="1.62" maxVehicleNumber="5" />
   <interval begin="0.00" end="60.00" id="queue_Rup_0" sampledSeconds="30.38" nVehEntered="5" nVehLeft="2" nVehSeen="5" meanSpeed="10.35" meanTimeLoss="0.40" meanOccupancy="2.77" maxOccupancy="16.67" meanMaxJamLengthInVehicles="0.00" meanMaxJamLengthInMeters="0.00" maxJamLengthInVehicles="0" maxJamLengthInMeters="0.00" jamLengthInVehiclesSum="0" jamLengthInMetersSum="0.00" meanHaltingDuration="0.00" maxHaltingDuration="0.00" haltingDurationSum="0.00" meanIntervalHaltingDuration="0.00" maxIntervalHaltingDuration="0.00" intervalHaltingDurationSum="0.00" startedHalts="0.00" meanVehicleNumber="0.60" maxVehicleNumber="3" />
   <interval begin="0.00" end="60.00" id="queue_Rup_1" sampledSeconds="8.55" nVehEntered="1" nVehLeft="0" nVehSeen="1" meanSpeed="8.41" meanTimeLoss="0.76" meanOccupancy="0.83" maxOccupancy="5.56" meanMaxJamLengthInVehicles="0.00" meanMaxJamLengthInMeters="0.00" maxJamLengthInVehicles="0" maxJamLengthInMeters="0.00" jamLengthInVehiclesSum="0" jamLengthInMetersSum="0.00" meanHaltingDuration="0.00" maxHaltingDuration="0.00" haltingDurationSum="0.00" meanIntervalHaltingDuration="0.00" maxIntervalHaltingDuration="0.00" intervalHaltingDurationSum="0.00" startedHalts="0.00" meanVehicleNumber="0.15" maxVehicleNumber="1" />
   <interval begin="0.00" end="60.00" id="queue_Sbound_0" sampledSeconds="27.45" nVehEntered="7" nVehLeft="6" nVehSeen="7" meanSpeed="16.08" meanTimeLoss="0.20" meanOccupancy="3.56" maxOccupancy="8.33" meanMaxJamLengthInVehicles="0.00" meanMaxJamLengthInMeters="0.00" maxJamLengthInVehicles="0" maxJamLengthInMeters="0.00" jamLengthInVehiclesSum="0" jamLengthInMetersSum="0.00" meanHaltingDuration="0.00" maxHaltingDuration="0.00" haltingDurationSum="0.00" meanIntervalHaltingDuration="0.00" maxIntervalHaltingDuration="0.00" intervalHaltingDurationSum="0.00" startedHalts="0.00" meanVehicleNumber="0.57" maxVehicleNumber="1" />
   <interval begin="0.00" end="60.00" id="queue_Sbound_1" sampledSeconds="65.01" nVehEntered="2" nVehLeft="0" nVehSeen="2" meanSpeed="1.84" meanTimeLoss="28.98" meanOccupancy="4.63" maxOccupancy="10.50" meanMaxJamLengthInVehicles="0.87" meanMaxJamLengthInMeters="2.16" maxJamLengthInVehicles="2" maxJamLengthInMeters="8.81" jamLengthInVehiclesSum="52" jamLengthInMetersSum="129.66" meanHaltingDuration="27.00" maxHaltingDuration="43.00" haltingDurationSum="54.00" meanIntervalHaltingDuration="27.00" maxIntervalHaltingDuration="43.00" intervalHaltingDurationSum="54.00" startedHalts="2.00" meanVehicleNumber="1.10" maxVehicleNumber="2" />
   <interval begin="60.00" end="120.00" id="queue_Lup_0" sampledSeconds="177.13" nVehEntered="20" nVehLeft="14" nVehSeen="21" meanSpeed="4.98" meanTimeLoss="5.85" meanOccupancy="22.89" maxOccupancy="53.85" meanMaxJamLengthInVehicles="1.68" meanMaxJamLengthInMeters="10.30" maxJamLengthInVehicles="6" maxJamLengthInMeters="39.82" jamLengthInVehiclesSum="101" jamLengthInMetersSum="617.97" meanHaltingDuration="17.83" maxHaltingDuration="28.00" haltingDurationSum="107.00" meanIntervalHaltingDuration="17.83" maxIntervalHaltingDuration="28.00" intervalHaltingDurationSum="107.00" startedHalts="6.00" meanVehicleNumber="3.17" maxVehicleNumber="7" />
   <interval begin="60.00" end="120.00" id="queue_Lup_1" sampledSeconds="107.61" nVehEntered="9" nVehLeft="3" nVehSeen="9" meanSpeed="1.40" meanTimeLoss="10.98" meanOccupancy="12.25" maxOccupancy="45.52" meanMaxJamLengthInVehicles="1.40" meanMaxJamLengthInMeters="7.74" maxJamLengthInVehicles="5" maxJamLengthInMeters="32.33" jamLengthInVehiclesSum="84" jamLengthInMetersSum="464.32" meanHaltingDuration="17.80" maxHaltingDuration="33.00" haltingDurationSum="89.00" meanIntervalHaltingDuration="17.80" maxIntervalHaltingDuration="33.00" intervalHaltingDurationSum="89.00" startedHalts="5.00" meanVehicleNumber="1.83" maxVehicleNumber="6" />
   <interval begin="60.00" end="120.00" id="queue_Rup_0" sampledSeconds="147.21" nVehEntered="16" nVehLeft="16" nVehSeen="19" meanSpeed="9.17" meanTimeLoss="1.21" meanOccupancy="12.81" maxOccupancy="22.22" meanMaxJamLengthInVehicles="0.00" meanMaxJamLengthInMeters="0.00" maxJamLengthInVehicles="0" maxJamLengthInMeters="0.00" jamLengthInVehiclesSum="0" jamLengthInMetersSum="0.00" meanHaltingDuration="1.00" maxHaltingDuration="1.00" haltingDurationSum="2.00" meanIntervalHaltingDuration="1.00" maxIntervalHaltingDuration="1.00" intervalHaltingDurationSum="2.00" startedHalts="2.00" meanVehicleNumber="2.67" maxVehicleNumber="4" />
   <interval begin="60.00" end="120.00" id="queue_Rup_1" sampledSeconds="199.15" nVehEntered="8" nVehLeft="4" nVehSeen="9" meanSpeed="3.05" meanTimeLoss="16.33" meanOccupancy="17.54" maxOccupancy="26.50" meanMaxJamLengthInVehicles="2.03" meanMaxJamLengthInMeters="12.49" maxJamLengthInVehicles="4" maxJamLengthInMeters="26.39" jamLengthInVehiclesSum="123" jamLengthInMetersSum="753.39" meanHaltingDuration="16.57" maxHaltingDuration="49.00" haltingDurationSum="116.00" meanIntervalHaltingDuration="16.57" maxIntervalHaltingDuration="49.00" intervalHaltingDurationSum="116.00" startedHalts="9.00" meanVehicleNumber="3.38" maxVehicleNumber="5" />
   <interval begin="60.00" end="120.00" id="queue_Sbound_0" sampledSeconds="29.24" nVehEntered="7" nVehLeft="8" nVehSeen="8" meanSpeed="16.03" meanTimeLoss="0.20" meanOccupancy="3.67" maxOccupancy="8.33" meanMaxJamLengthInVehicles="0.00" meanMaxJamLengthInMeters="0.00" maxJamLengthInVehicles="0" maxJamLengthInMeters="0.00" jamLengthInVehiclesSum="0" jamLengthInMetersSum="0.00" meanHaltingDuration="0.00" maxHaltingDuration="0.00" haltingDurationSum="0.00" meanIntervalHaltingDuration="0.00" maxIntervalHaltingDuration="0.00" intervalHaltingDurationSum="0.00" startedHalts="0.00" meanVehicleNumber="0.62" maxVehicleNumber="1" />
   <interval begin="60.00" end="120.00" id="queue_Sbound_1" sampledSeconds="82.96" nVehEntered="2" nVehLeft="4" nVehSeen="4" meanSpeed="1.69" meanTimeLoss="18.56" meanOccupancy="8.34" maxOccupancy="18.84" meanMaxJamLengthInVehicles="1.10" meanMaxJamLengthInMeters="5.23" maxJamLengthInVehicles="3" maxJamLengthInMeters="16.39" jamLengthInVehiclesSum="66" jamLengthInMetersSum="314.09" meanHaltingDuration="40.33" maxHaltingDuration="71.00" haltingDurationSum="121.00" meanIntervalHaltingDuration="22.33" maxIntervalHaltingDuration="29.00" intervalHaltingDurationSum="67.00" startedHalts="1.00" meanVehicleNumber="1.43" maxVehicleNumber="3" />
   <interval begin="120.00" end="180.00" id="queue_Lup_0" sampledSeconds="520.24" nVehEntered="3" nVehLeft="2" nVehSeen="10" meanSpeed="0.07" meanTimeLoss="51.78" meanOccupancy="64.75" maxOccupancy="66.65" meanMaxJamLengthInVehicles="8.48" meanMaxJamLengthInMeters="56.84" maxJamLengthInVehicles="9" maxJamLengthInMeters="60.00" jamLengthInVehiclesSum="509" jamLengthInMetersSum="3410.46" meanHaltingDuration="68.78" maxHaltingDuration="85.00" haltingDurationSum="619.00" meanIntervalHaltingDuration="56.89" maxIntervalHaltingDuration="60.00" intervalHaltingDurationSum="512.00" startedHalts="3.00" meanVehicleNumber="8.72" maxVehicleNumber="9" />
   <interval begin="120.00" end="180.00" id="queue_Lup_1" sampledSeconds="509.40" nVehEntered="3" nVehLeft="1" nVehSeen="9" meanSpeed="0.09" meanTimeLoss="56.30" meanOccupancy="63.61" maxOccupancy="66.65" meanMaxJamLengthInVehicles="8.27" meanMaxJamLengthInMeters="55.49" maxJamLengthInVehicles="9" maxJamLengthInMeters="60.00" jamLengthInVehiclesSum="496" jamLengthInMetersSum="3329.47" meanHaltingDuration="65.44" maxHaltingDuration="89.00" haltingDurationSum="589.00" meanIntervalHaltingDuration="55.55" maxIntervalHaltingDuration="60.00" intervalHaltingDurationSum="500.00" startedHalts="4.00" meanVehicleNumber="8.53" maxVehicleNumber="9" />
   <interval begin="120.00" end="180.00" id="queue_Rup_0" sampledSeconds="95.46" nVehEntered="12" nVehLeft="15" nVehSeen="15" meanSpeed="9.99" meanTimeLoss="0.67" meanOccupancy="8.23" maxOccupancy="17.20" meanMaxJamLengthInVehicles="0.00" meanMaxJamLengthInMeters="0.00" maxJamLengthInVehicles="0" maxJamLengthInMeters="0.00" jamLengthInVehiclesSum="0" jamLengthInMetersSum="0.00" meanHaltingDuration="0.00" maxHaltingDuration="0.00" haltingDurationSum="0.00" meanIntervalHaltingDuration="0.00" maxIntervalHaltingDuration="0.00" intervalHaltingDurationSum="0.00" startedHalts="0.00" meanVehicleNumber="1.82" maxVehicleNumber="4" />
   <interval begin="120.00" end="180.00" id="queue_Rup_1" sampledSeconds="243.17" nVehEntered="10" nVehLeft="14" nVehSeen="15" meanSpeed="4.28" meanTimeLoss="10.30" meanOccupancy="21.40" maxOccupancy="38.89" meanMaxJamLengthInVehicles="1.90" meanMaxJamLengthInMeters="12.96" maxJamLengthInVehicles="6" maxJamLengthInMeters="41.45" jamLengthInVehiclesSum="114" jamLengthInMetersSum="777.40" meanHaltingDuration="24.44" maxHaltingDuration="67.00" haltingDurationSum="220.00" meanIntervalHaltingDuration="13.22" maxIntervalHaltingDuration="23.00" intervalHaltingDurationSum="119.00" startedHalts="6.00" meanVehicleNumber="4.25" maxVehicleNumber="7" />
   <interval begin="120.00" end="180.00" id="queue_Sbound_0" sampledSeconds="30.83" nVehEntered="8" nVehLeft="7" nVehSeen="8" meanSpeed="15.87" meanTimeLoss="0.25" meanOccupancy="3.81" maxOccupancy="8.33" meanMaxJamLengthInVehicles="0.00" meanMaxJamLengthInMeters="0.00" maxJamLengthInVehicles="0" maxJamLengthInMeters="0.00" jamLengthInVehiclesSum="0" jamLengthInMetersSum="0.00" meanHaltingDuration="0.00" maxHaltingDuration="0.00" haltingDurationSum="0.00" meanIntervalHaltingDuration="0.00" maxIntervalHaltingDuration="0.00" intervalHaltingDurationSum="0.00" startedHalts="0.00" meanVehicleNumber="0.65" maxVehicleNumber="1" />
   <interval begin="120.00" end="180.00" id="queue_Sbound_1" sampledSeconds="54.49" nVehEntered="2" nVehLeft="0" nVehSeen="2" meanSpeed="2.20" meanTimeLoss="23.55" meanOccupancy="3.68" maxOccupancy="10.50" meanMaxJamLengthInVehicles="0.68" meanMaxJamLengthInMeters="1.31" maxJamLengthInVehicles="2" maxJamLengthInMeters="8.80" jamLengthInVehiclesSum="41" jamLengthInMetersSum="78.30" meanHaltingDuration="21.50" maxHaltingDuration="38.00" haltingDurationSum="43.00" meanIntervalHaltingDuration="21.50" maxIntervalHaltingDuration="38.00" intervalHaltingDurationSum="43.00" startedHalts="2.00" meanVehicleNumber="0.92" maxVehicleNumber="2" />
   <interval begin="180.00" end="240.00" id="queue_Lup_0" sampledSeconds="277.52" nVehEntered="19" nVehLeft="21" nVehSeen="27" meanSpeed="4.33" meanTimeLoss="7.48" meanOccupancy="35.23" maxOccupancy="54.47" meanMaxJamLengthInVehicles="1.37" meanMaxJamLengthInMeters="8.39" maxJamLengthInVehicles="5" maxJamLengthInMeters="34.20" jamLengthInVehiclesSum="82" jamLengthInMetersSum="503.53" meanHaltingDuration="41.64" maxHaltingDuration="75.00" haltingDurationSum="458.00" meanIntervalHaltingDuration="7.91" maxIntervalHaltingDuration="18.00" intervalHaltingDurationSum="87.00" startedHalts="5.00" meanVehicleNumber="4.93" maxVehicleNumber="8" />
   <interval begin="180.00" end="240.00" id="queue_Lup_1" sampledSeconds="197.33" nVehEntered="19" nVehLeft="22" nVehSeen="27" meanSpeed="6.82" meanTimeLoss="4.37" meanOccupancy="24.09" maxOccupancy="54.47" meanMaxJamLengthInVehicles="1.07" meanMaxJamLengthInMeters="6.29" maxJamLengthInVehicles="5" maxJamLengthInMeters="33.09" jamLengthInVehiclesSum="64" jamLengthInMetersSum="377.42" meanHaltingDuration="37.45" maxHaltingDuration="70.00" haltingDurationSum="412.00" meanIntervalHaltingDuration="6.27" maxIntervalHaltingDuration="16.00" intervalHaltingDurationSum="69.00" startedHalts="5.00" meanVehicleNumber="3.57" maxVehicleNumber="8" />
   <interval begin="180.00" end="240.00" id="queue_Rup_0" sampledSeconds="166.20" nVehEntered="16" nVehLeft="12" nVehSeen="16" meanSpeed="6.33" meanTimeLoss="3.99" meanOccupancy="14.09" maxOccupancy="24.19" meanMaxJamLengthInVehicles="0.22" meanMaxJamLengthInMeters="0.83" maxJamLengthInVehicles="2" maxJamLengthInMeters="13.44" jamLengthInVehiclesSum="13" jamLengthInMetersSum="50.02" meanHaltingDuration="2.00" maxHaltingDuration="4.00" haltingDurationSum="26.00" meanIntervalHaltingDuration="2.00" maxIntervalHaltingDuration="4.00" intervalHaltingDurationSum="26.00" startedHalts="13.00" meanVehicleNumber="2.95" maxVehicleNumber="5" />
   <interval begin="180.00" end="240.00" id="queue_Rup_1" sampledSeconds="231.06" nVehEntered="9" nVehLeft="5" nVehSeen="10" meanSpeed="2.50" meanTimeLoss="18.14" meanOccupancy="20.40" maxOccupancy="32.06" meanMaxJamLengthInVehicles="2.48" meanMaxJamLengthInMeters="15.30" maxJamLengthInVehicles="6" maxJamLengthInMeters="41.37" jamLengthInVehiclesSum="151" jamLengthInMetersSum="927.70" meanHaltingDuration="17.00" maxHaltingDuration="56.00" haltingDurationSum="119.00" meanIntervalHaltingDuration="17.00" maxIntervalHaltingDuration="56.00" intervalHaltingDurationSum="119.00" startedHalts="11.00" meanVehicleNumber="3.92" maxVehicleNumber="6" />
   <interval begin="180.00" end="240.00" id="queue_Sbound_0" sampledSeconds="32.32" nVehEntered="7" nVehLeft="8" nVehSeen="8" meanSpeed="15.03" meanTimeLoss="0.20" meanOccupancy="4.12" maxOccupancy="8.33" meanMaxJamLengthInVehicles="0.00" meanMaxJamLengthInMeters="0.00" maxJamLengthInVehicles="0" maxJamLengthInMeters="0.00" jamLengthInVehiclesSum="0" jamLengthInMetersSum="0.00" meanHaltingDuration="0.00" maxHaltingDuration="0.00" haltingDurationSum="0.00" meanIntervalHaltingDuration="0.00" maxIntervalHaltingDuration="0.00" intervalHaltingDurationSum="0.00" startedHalts="0.00" meanVehicleNumber="0.63" maxVehicleNumber="1" />
   <interval begin="180.00" end="240.00" id="queue_Sbound_1" sampledSeconds="129.32" nVehEntered="2" nVehLeft="4" nVehSeen="4" meanSpeed="1.08" meanTimeLoss="30.41" meanOccupancy="12.98" maxOccupancy="18.84" meanMaxJamLengthInVehicles="1.88" meanMaxJamLengthInMeters="9.37" maxJamLengthInVehicles="3" maxJamLengthInMeters="16.30" jamLengthInVehiclesSum="113" jamLengthInMetersSum="562.39" meanHaltingDuration="52.33" maxHaltingDuration="83.00" haltingDurationSum="157.00" meanIntervalHaltingDuration="38.00" maxIntervalHaltingDuration="47.00" intervalHaltingDurationSum="114.00" startedHalts="1.00" meanVehicleNumber="2.20" maxVehicleNumber="3" />
   <interval begin="240.00" end="300.00" id="queue_Lup_0" sampledSeconds="512.39" nVehEntered="3" nVehLeft="0" nVehSeen="9" meanSpeed="0.06" meanTimeLoss="56.71" meanOccupancy="63.97" maxOccupancy="66.65" meanMaxJamLengthInVehicles="8.38" meanMaxJamLengthInMeters="56.11" maxJamLengthInVehicles="9" maxJamLengthInMeters="60.00" jamLengthInVehiclesSum="503" jamLengthInMetersSum="3366.73" meanHaltingDuration="63.78" maxHaltingDuration="78.00" haltingDurationSum="574.00" meanIntervalHaltingDuration="56.33" maxIntervalHaltingDuration="60.00" intervalHaltingDurationSum="507.00" startedHalts="4.00" meanVehicleNumber="8.55" maxVehicleNumber="9" />
   <interval begin="240.00" end="300.00" id="queue_Lup_1" sampledSeconds="494.39" nVehEntered="4" nVehLeft="0" nVehSeen="9" meanSpeed="0.11" meanTimeLoss="54.57" meanOccupancy="61.74" maxOccupancy="66.65" meanMaxJamLengthInVehicles="8.03" meanMaxJamLengthInMeters="53.60" maxJamLengthInVehicles="9" maxJamLengthInMeters="60.00" jamLengthInVehiclesSum="482" jamLengthInMetersSum="3216.16" meanHaltingDuration="59.67" maxHaltingDuration="76.00" haltingDurationSum="537.00" meanIntervalHaltingDuration="54.00" maxIntervalHaltingDuration="60.00" intervalHaltingDurationSum="486.00" startedHalts="4.00" meanVehicleNumber="8.27" maxVehicleNumber="9" />
   <interval begin="240.00" end="300.00" id="queue_Rup_0" sampledSeconds="145.82" nVehEntered="14" nVehLeft="17" nVehSeen="18" meanSpeed="10.03" meanTimeLoss="0.71" meanOccupancy="12.68" maxOccupancy="22.22" meanMaxJamLengthInVehicles="0.00" meanMaxJamLengthInMeters="0.00" maxJamLengthInVehicles="0" maxJamLengthInMeters="0.00" jamLengthInVehiclesSum="0" jamLengthInMetersSum="0.00" meanHaltingDuration="0.00" maxHaltingDuration="0.00" haltingDurationSum="0.00" meanIntervalHaltingDuration="0.00" maxIntervalHaltingDuration="0.00" intervalHaltingDurationSum="0.00" startedHalts="0.00" meanVehicleNumber="2.63" maxVehicleNumber="5" />
   <interval begin="240.00" end="300.00" id="queue_Rup_1" sampledSeconds="285.25" nVehEntered="5" nVehLeft="9" nVehSeen="10" meanSpeed="1.78" meanTimeLoss="24.12" meanOccupancy="25.10" maxOccupancy="37.61" meanMaxJamLengthInVehicles="3.52" meanMaxJamLengthInMeters="24.03" maxJamLengthInVehicles="7" maxJamLengthInMeters="48.92" jamLengthInVehiclesSum="211" jamLengthInMetersSum="1441.73" meanHaltingDuration="39.12" maxHaltingDuration="92.00" haltingDurationSum="313.00" meanIntervalHaltingDuration="27.00" maxIntervalHaltingDuration="39.00" intervalHaltingDurationSum="216.00" startedHalts="5.00" meanVehicleNumber="4.83" maxVehicleNumber="7" />
   <interval begin="240.00" end="300.00" id="queue_Sbound_0" sampledSeconds="27.91" nVehEntered="7" nVehLeft="7" nVehSeen="7" meanSpeed="16.30" meanTimeLoss="0.31" meanOccupancy="3.68" maxOccupancy="8.33" meanMaxJamLengthInVehicles="0.00" meanMaxJamLengthInMeters="0.00" maxJamLengthInVehicles="0" maxJamLengthInMeters="0.00" jamLengthInVehiclesSum="0" jamLengthInMetersSum="0.00" meanHaltingDuration="0.00" maxHaltingDuration="0.00" haltingDurationSum="0.00" meanIntervalHaltingDuration="0.00" maxIntervalHaltingDuration="0.00" intervalHaltingDurationSum="0.00" startedHalts="0.00" meanVehicleNumber="0.60" maxVehicleNumber="1" />
   <interval begin="240.00" end="300.00" id="queue_Sbound_1" sampledSeconds="5.67" nVehEntered="2" nVehLeft="1" nVehSeen="2" meanSpeed="15.87" meanTimeLoss="0.13" meanOccupancy="0.77" maxOccupancy="8.33" meanMaxJamLengthInVehicles="0.00" meanMaxJamLengthInMeters="0.00" maxJamLengthInVehicles="0" maxJamLengthInMeters="0.00" jamLengthInVehiclesSum="0" jamLengthInMetersSum="0.00" meanHaltingDuration="0.00" maxHaltingDuration="0.00" haltingDurationSum="0.00" meanIntervalHaltingDuration="0.00" maxIntervalHaltingDuration="0.00" intervalHaltingDurationSum="0.00" startedHalts="0.00" meanVehicleNumber="0.12" maxVehicleNumber="1" />
   <interval begin="300.00" end="360.00" id="queue_Lup_0" sampledSeconds="342.56" nVehEntered="13" nVehLeft="21" nVehSeen="22" meanSpeed="3.00" meanTimeLoss="12.59" meanOccupancy="42.83" maxOccupancy="66.65" meanMaxJamLengthInVehicles="2.70" meanMaxJamLengthInMeters="17.92" maxJamLengthInVehicles="9" maxJamLengthInMeters="60.00" jamLengthInVehiclesSum="162" jamLengthInMetersSum="1075.37" meanHaltingDuration="81.78" maxHaltingDuration="92.00" haltingDurationSum="736.00" meanIntervalHaltingDuration="18.00" maxIntervalHaltingDuration="23.00" intervalHaltingDurationSum="162.00" startedHalts="0.00" meanVehicleNumber="5.98" maxVehicleNumber="9" />
   <interval begin="300.00" end="360.00" id="queue_Lup_1" sampledSeconds="285.34" nVehEntered="15" nVehLeft="23" nVehSeen="24" meanSpeed="4.38" meanTimeLoss="8.83" meanOccupancy="35.27" maxOccupancy="66.65" meanMaxJamLengthInVehicles="2.67" meanMaxJamLengthInMeters="17.74" maxJamLengthInVehicles="9" maxJamLengthInMeters="60.00" jamLengthInVehiclesSum="160" jamLengthInMetersSum="1064.35" meanHaltingDuration="63.55" maxHaltingDuration="89.00" haltingDurationSum="699.00" meanIntervalHaltingDuration="14.73" maxIntervalHaltingDuration="22.00" intervalHaltingDurationSum="162.00" startedHalts="2.00" meanVehicleNumber="5.03" maxVehicleNumber="9" />
   <interval begin="300.00" end="360.00" id="queue_Rup_0" sampledSeconds="156.14" nVehEntered="17" nVehLeft="14" nVehSeen="18" meanSpeed="6.73" meanTimeLoss="3.16" meanOccupancy="13.25" maxOccupancy="25.50" meanMaxJamLengthInVehicles="0.18" meanMaxJamLengthInMeters="1.05" maxJamLengthInVehicles="3" maxJamLengthInMeters="18.34" jamLengthInVehiclesSum="11" jamLengthInMetersSum="62.91" meanHaltingDuration="2.38" maxHaltingDuration="5.00" haltingDurationSum="19.00" meanIntervalHaltingDuration="2.38" maxIntervalHaltingDuration="5.00" intervalHaltingDurationSum="19.00" startedHalts="8.00" meanVehicleNumber="2.83" maxVehicleNumber="5" />
   <interval begin="300.00" end="360.00" id="queue_Rup_1" sampledSeconds="245.29" nVehEntered="12" nVehLeft="7" nVehSeen="13" meanSpeed="3.45" meanTimeLoss="12.98" meanOccupancy="21.89" maxOccupancy="32.06" meanMaxJamLengthInVehicles="2.08" meanMaxJamLengthInMeters="13.04" maxJamLengthInVehicles="5" maxJamLengthInMeters="34.85" jamLengthInVehiclesSum="125" jamLengthInMetersSum="782.21" meanHaltingDuration="12.33" maxHaltingDuration="44.00" haltingDurationSum="111.00" meanIntervalHaltingDuration="12.33" maxIntervalHaltingDuration="44.00" intervalHaltingDurationSum="111.00" startedHalts="14.00" meanVehicleNumber="4.20" maxVehicleNumber="6" />
   <interval begin="300.00" end="360.00" id="queue_Sbound_0" sampledSeconds="32.62" nVehEntered="8" nVehLeft="8" nVehSeen="8" meanSpeed="15.94" meanTimeLoss="0.32" meanOccupancy="4.24" maxOccupancy="8.33" meanMaxJamLengthInVehicles="0.00" meanMaxJamLengthInMeters="0.00" maxJamLengthInVehicles="0" maxJamLengthInMeters="0.00" jamLengthInVehiclesSum="0" jamLengthInMetersSum="0.00" meanHaltingDuration="0.00" maxHaltingDuration="0.00" haltingDurationSum="0.00" meanIntervalHaltingDuration="0.00" maxIntervalHaltingDuration="0.00" intervalHaltingDurationSum="0.00" startedHalts="0.00" meanVehicleNumber="0.70" maxVehicleNumber="1" />
   <interval begin="300.00" end="360.00" id="queue_Sbound_1" sampledSeconds="89.58" nVehEntered="1" nVehLeft="0" nVehSeen="2" meanSpeed="1.06" meanTimeLoss="41.88" meanOccupancy="6.68" maxOccupancy="10.50" meanMaxJamLengthInVehicles="1.32" meanMaxJamLengthInMeters="4.19" maxJamLengthInVehicles="2" maxJamLengthInMeters="8.85" jamLengthInVehiclesSum="79" jamLengthInMetersSum="251.66" meanHaltingDuration="40.50" maxHaltingDuration="56.00" haltingDurationSum="81.00" meanIntervalHaltingDuration="40.50" maxIntervalHaltingDuration="56.00" intervalHaltingDurationSum="81.00" startedHalts="2.00" meanVehicleNumber="1.50" maxVehicleNumber="2" />
   <interval begin="360.00" end="420.00" id="queue_Lup_0" sampledSeconds="373.64" nVehEntered="13" nVehLeft="5" nVehSeen="14" meanSpeed="1.02" meanTimeLoss="25.11" meanOccupancy="47.24" maxOccupancy="66.65" meanMaxJamLengthInVehicles="5.45" meanMaxJamLengthInMeters="35.77" maxJamLengthInVehicles="9" maxJamLengthInMeters="60.00" jamLengthInVehiclesSum="327" jamLengthInMetersSum="2146.14" meanHaltingDuration="37.33" maxHaltingDuration="54.00" haltingDurationSum="336.00" meanIntervalHaltingDuration="37.33" maxIntervalHaltingDuration="54.00" intervalHaltingDurationSum="336.00" startedHalts="9.00" meanVehicleNumber="6.35" maxVehicleNumber="9" />
   <interval begin="360.00" end="420.00" id="queue_Lup_1" sampledSeconds="334.24" nVehEntered="8" nVehLeft="0" nVehSeen="9" meanSpeed="0.41" meanTimeLoss="36.23" meanOccupancy="41.19" maxOccupancy="66.65" meanMaxJamLengthInVehicles="5.08" meanMaxJamLengthInMeters="32.70" maxJamLengthInVehicles="9" maxJamLengthInMeters="60.00" jamLengthInVehiclesSum="305" jamLengthInMetersSum="1961.81" meanHaltingDuration="34.89" maxHaltingDuration="59.00" haltingDurationSum="314.00" meanIntervalHaltingDuration="34.89" maxIntervalHaltingDuration="59.00" intervalHaltingDurationSum="314.00" startedHalts="9.00" meanVehicleNumber="5.60" maxVehicleNumber="9" />
   <interval begin="360.00" end="420.00" id="queue_Rup_0" sampledSeconds="167.78" nVehEntered="17" nVehLeft="19" nVehSeen="21" meanSpeed="8.50" meanTimeLoss="1.83" meanOccupancy="14.48" maxOccupancy="26.06" meanMaxJamLengthInVehicles="0.00" meanMaxJamLengthInMeters="0.00" maxJamLengthInVehicles="0" maxJamLengthInMeters="0.00" jamLengthInVehiclesSum="0" jamLengthInMetersSum="0.00" meanHaltingDuration="1.00" maxHaltingDuration="1.00" haltingDurationSum="5.00" meanIntervalHaltingDuration="1.00" maxIntervalHaltingDuration="1.00" intervalHaltingDurationSum="5.00" startedHalts="5.00" meanVehicleNumber="3.07" maxVehicleNumber="5" />
   <interval begin="360.00" end="420.00" id="queue_Rup_1" sampledSeconds="416.50" nVehEntered="8" nVehLeft="7" nVehSeen="14" meanSpeed="0.91" meanTimeLoss="27.25" meanOccupancy="37.40" maxOccupancy="48.72" meanMaxJamLengthInVehicles="5.75" meanMaxJamLengthInMeters="39.67" maxJamLengthInVehicles="8" maxJamLengthInMeters="56.39" jamLengthInVehiclesSum="345" jamLengthInMetersSum="2380.01" meanHaltingDuration="39.09" maxHaltingDuration="97.00" haltingDurationSum="430.00" meanIntervalHaltingDuration="30.27" maxIntervalHaltingDuration="56.00" intervalHaltingDurationSum="333.00" startedHalts="10.00" meanVehicleNumber="7.03" maxVehicleNumber="10" />
   <interval begin="360.00" end="420.00" id="queue_Sbound_0" sampledSeconds="30.79" nVehEntered="8" nVehLeft="7" nVehSeen="8" meanSpeed="14.95" meanTimeLoss="0.25" meanOccupancy="4.14" maxOccupancy="8.33" meanMaxJamLengthInVehicles="0.00" meanMaxJamLengthInMeters="0.00" maxJamLengthInVehicles="0" maxJamLengthInMeters="0.00" jamLengthInVehiclesSum="0" jamLengthInMetersSum="0.00" meanHaltingDuration="0.00" maxHaltingDuration="0.00" haltingDurationSum="0.00" meanIntervalHaltingDuration="0.00" maxIntervalHaltingDuration="0.00" intervalHaltingDurationSum="0.00" startedHalts="0.00" meanVehicleNumber="0.63" maxVehicleNumber="1" />
   <interval begin="360.00" end="420.00" id="queue_Sbound_1" sampledSeconds="19.00" nVehEntered="2" nVehLeft="4" nVehSeen="4" meanSpeed="7.37" meanTimeLoss="2.59" meanOccupancy="2.04" maxOccupancy="16.67" meanMaxJamLengthInVehicles="0.08" meanMaxJamLengthInMeters="0.38" maxJamLengthInVehicles="2" maxJamLengthInMeters="8.80" jamLengthInVehiclesSum="5" jamLengthInMetersSum="22.60" meanHaltingDuration="43.00" maxHaltingDuration="58.00" haltingDurationSum="86.00" meanIntervalHaltingDuration="2.50" maxIntervalHaltingDuration="3.00" intervalHaltingDurationSum="5.00" startedHalts="0.00" meanVehicleNumber="0.37" maxVehicleNumber="3" />
   <interval begin="420.00" end="480.00" id="queue_Lup_0" sampledSeconds="431.66" nVehEntered="7" nVehLeft="11" nVehSeen="16" meanSpeed="1.41" meanTimeLoss="24.62" meanOccupancy="53.59" maxOccupancy="66.65" meanMaxJamLengthInVehicles="5.33" meanMaxJamLengthInMeters="35.63" maxJamLengthInVehicles="9" maxJamLengthInMeters="60.00" jamLengthInVehiclesSum="320" jamLengthInMetersSum="2137.77" meanHaltingDuration="72.89" maxHaltingDuration="84.00" haltingDurationSum="656.00" meanIntervalHaltingDuration="35.55" maxIntervalHaltingDuration="40.00" intervalHaltingDurationSum="320.00" startedHalts="0.00" meanVehicleNumber="7.35" maxVehicleNumber="9" />
   <interval begin="420.00" end="480.00" id="queue_Lup_1" sampledSeconds="399.67" nVehEntered="9" nVehLeft="15" nVehSeen="18" meanSpeed="1.95" meanTimeLoss="19.64" meanOccupancy="49.49" maxOccupancy="66.65" meanMaxJamLengthInVehicles="5.30" meanMaxJamLengthInMeters="35.33" maxJamLengthInVehicles="9" maxJamLengthInMeters="60.00" jamLengthInVehiclesSum="318" jamLengthInMetersSum="2119.86" meanHaltingDuration="70.22" maxHaltingDuration="89.00" haltingDurationSum="632.00" meanIntervalHaltingDuration="35.33" maxIntervalHaltingDuration="40.00" intervalHaltingDurationSum="318.00" startedHalts="0.00" meanVehicleNumber="6.85" maxVehicleNumber="9" />