<?xml version="1.0" encoding="UTF-8"?>

<!-- generated on 2026-05-25T12:53:26.906649+08:00 by Eclipse SUMO GUI 1.26.0
<sumoConfiguration xmlns:xsi="http://www.w3.org/2001/XMLSchema-instance" xsi:noNamespaceSchemaLocation="http://sumo.dlr.de/xsd/sumoConfiguration.xsd">

    <input>
        <net-file value="C:\Users\mmmma\TrafficProject\final\baseline_cases\morning_baseline_case\initial8_network.net.xml"/>
        <route-files value="C:\Users\mmmma\TrafficProject\final\baseline_cases\morning_baseline_case\routes_morning.rou.xml"/>
        <additional-files value="C:\Users\mmmma\TrafficProject\final\baseline_cases\morning_baseline_case\detectors.add.xml"/>
    </input>

    <output>
        <tripinfo-output value="C:\Users\mmmma\TrafficProject\final\baseline_cases\morning_baseline_case\outputs_morning/tripinfo.xml"/>
        <edgedata-output value="C:\Users\mmmma\TrafficProject\final\baseline_cases\morning_baseline_case\outputs_morning/edge_data.xml"/>
    </output>

    <time>
        <begin value="0"/>
        <end value="3600"/>
    </time>

    <gui_only>
        <start value="true"/>
    </gui_only>

</sumoConfiguration>
-->

<tripinfos xmlns:xsi="http://www.w3.org/2001/XMLSchema-instance" xsi:noNamespaceSchemaLocation="http://sumo.dlr.de/xsd/tripinfo_file.xsd">
    <tripinfo id="AM_Southbound_straight.0" depart="0.00" departLane="southbound_lanes_0" departPos="5.10" departSpeed="0.00" departDelay="0.00" arrival="23.00" arrivalLane="Ldown_0" arrivalPos="161.93" arrivalSpeed="15.72" duration="23.00" routeLength="305.87" waitingTime="0.00" waitingCount="0" stopTime="0.00" timeLoss="3.96" rerouteNo="0" devices="tripinfo_AM_Southbound_straight.0 routing_AM_Southbound_straight.0" vType="car" speedFactor="1.01" vaporized=""/>
    <tripinfo id="AM_Southbound_straight.1" depart="9.00" departLane="southbound_lanes_0" departPos="5.10" departSpeed="0.00" departDelay="0.93" arrival="31.00" arrivalLane="Ldown_0" arrivalPos="161.93" arrivalSpeed="18.53" duration="22.00" routeLength="305.87" waitingTime="0.00" waitingCount="0" stopTime="0.00" timeLoss="4.70" rerouteNo="0" devices="tripinfo_AM_Southbound_straight.1 routing_AM_Southbound_straight.1" vType="car" speedFactor="1.12" vaporized=""/>
    <tripinfo id="AM_Southbound_straight.2" depart="17.00" departLane="southbound_lanes_0" departPos="5.10" departSpeed="0.00" departDelay="0.86" arrival="41.00" arrivalLane="Ldown_0" arrivalPos="161.93" arrivalSpeed="15.24" duration="24.00" routeLength="305.87" waitingTime="0.00" waitingCount="0" stopTime="0.00" timeLoss="4.63" rerouteNo="0" devices="tripinfo_AM_Southbound_straight.2 routing_AM_Southbound_straight.2" vType="car" speedFactor="0.97" vaporized=""/>
    <tripinfo id="AM_Southbound_straight.3" depart="25.00" departLane="southbound_lanes_0" departPos="5.10" departSpeed="0.00" departDelay="0.79" arrival="45.00" arrivalLane="Ldown_0" arrivalPos="161.93" arrivalSpeed="18.62" duration="20.00" routeLength="305.87" waitingTime="0.00" waitingCount="0" stopTime="0.00" timeLoss="4.27" rerouteNo="0" devices="tripinfo_AM_Southbound_straight.3 routing_AM_Southbound_straight.3" vType="car" speedFactor="1.18" vaporized=""/>
    <tripinfo id="AM_Northbound_straight.0" depart="0.00" departLane="Lup_0" departPos="5.10" departSpeed="0.00" departDelay="0.00" arrival="51.00" arrivalLane="northbound_lanes_0" arrivalPos="122.67" arrivalSpeed="17.34" duration="51.00" routeLength="311.00" waitingTime="22.00" waitingCount="1" stopTime="0.00" timeLoss="32.82" rerouteNo="0" devices="tripinfo_AM_Northbound_straight.0 routing_AM_Northbound_straight.0" vType="car" speedFactor="1.06" vaporized=""/>
    <tripinfo id="AM_Northbound_straight.1" depart="6.00" departLane="Lup_0" departPos="5.10" departSpeed="0.00" departDelay="3.98" arrival="51.00" arrivalLane="northbound_lanes_1" arrivalPos="122.67" arrivalSpeed="16.69" duration="45.00" routeLength="311.00" waitingTime="16.00" waitingCount="1" stopTime="0.00" timeLoss="26.95" rerouteNo="0" devices="tripinfo_AM_Northbound_straight.1 routing_AM_Northbound_straight.1" vType="car" speedFactor="1.05" vaporized=""/>
    <tripinfo id="AM_Northbound_straight.2" depart="9.00" departLane="Lup_0" departPos="5.10" departSpeed="0.00" departDelay="4.97" arrival="54.00" arrivalLane="northbound_lanes_1" arrivalPos="122.67" arrivalSpeed="14.76" duration="45.00" routeLength="311.00" waitingTime="14.00" waitingCount="1" stopTime="0.00" timeLoss="24.75" rerouteNo="0" devices="tripinfo_AM_Northbound_straight.2 routing_AM_Northbound_straight.2" vType="car" speedFactor="0.94" vaporized=""/>
    <tripinfo id="AM_Southbound_straight.4" depart="33.00" departLane="southbound_lanes_0" departPos="5.10" departSpeed="0.00" departDelay="0.72" arrival="55.00" arrivalLane="Ldown_0" arrivalPos="161.93" arrivalSpeed="16.46" duration="22.00" routeLength="305.87" waitingTime="0.00" waitingCount="0" stopTime="0.00" timeLoss="4.19" rerouteNo="0" devices="tripinfo_AM_Southbound_straight.4 routing_AM_Southbound_straight.4" vType="car" speedFactor="1.03" vaporized=""/>
    <tripinfo id="AM_Northbound_straight.4" depart="15.00" departLane="Lup_0" departPos="5.10" departSpeed="0.00" departDelay="6.94" arrival="56.00" arrivalLane="northbound_lanes_1" arrivalPos="122.67" arrivalSpeed="16.07" duration="41.00" routeLength="311.00" waitingTime="10.00" waitingCount="1" stopTime="0.00" timeLoss="22.04" rerouteNo="0" devices="tripinfo_AM_Northbound_straight.4 routing_AM_Northbound_straight.4" vType="car" speedFactor="1.03" vaporized=""/>
    <tripinfo id="AM_Northbound_straight.3" depart="12.00" departLane="Lup_0" departPos="5.10" departSpeed="0.00" departDelay="5.95" arrival="57.00" arrivalLane="northbound_lanes_0" arrivalPos="122.67" arrivalSpeed="13.89" duration="45.00" routeLength="311.00" waitingTime="12.00" waitingCount="1" stopTime="0.00" timeLoss="22.33" rerouteNo="0" devices="tripinfo_AM_Northbound_straight.3 routing_AM_Northbound_straight.3" vType="car" speedFactor="0.86" vaporized=""/>
    <tripinfo id="AM_Rup_major.0" depart="0.00" departLane="Rup_0" departPos="5.10" departSpeed="0.00" departDelay="0.00" arrival="58.00" arrivalLane="northbound_lanes_0" arrivalPos="122.67" arrivalSpeed="16.50" duration="58.00" routeLength="637.97" waitingTime="0.00" waitingCount="0" stopTime="0.00" timeLoss="6.11" rerouteNo="0" devices="tripinfo_AM_Rup_major.0 routing_AM_Rup_major.0" vType="car" speedFactor="1.03" vaporized=""/>
    <tripinfo id="AM_Northbound_straight.5" depart="21.00" departLane="Lup_0" departPos="5.10" departSpeed="0.00" departDelay="10.92" arrival="58.00" arrivalLane="northbound_lanes_1" arrivalPos="122.67" arrivalSpeed="15.51" duration="37.00" routeLength="311.00" waitingTime="5.00" waitingCount="1" stopTime="0.00" timeLoss="17.29" rerouteNo="0" devices="tripinfo_AM_Northbound_straight.5 routing_AM_Northbound_straight.5" vType="car" speedFactor="0.99" vaporized=""/>
    <tripinfo id="AM_Northbound_straight.7" depart="27.00" departLane="Lup_0" departPos="5.10" departSpeed="0.00" departDelay="12.89" arrival="59.00" arrivalLane="northbound_lanes_1" arrivalPos="122.67" arrivalSpeed="18.07" duration="32.00" routeLength="311.00" waitingTime="0.00" waitingCount="0" stopTime="0.00" timeLoss="15.50" rerouteNo="0" devices="tripinfo_AM_Northbound_straight.7 routing_AM_Northbound_straight.7" vType="car" speedFactor="1.16" vaporized=""/>
    <tripinfo id="AM_Northbound_straight.6" depart="24.00" departLane="Lup_0" departPos="5.10" departSpeed="0.00" departDelay="11.90" arrival="61.00" arrivalLane="northbound_lanes_0" arrivalPos="122.67" arrivalSpeed="13.35" duration="37.00" routeLength="311.00" waitingTime="3.00" waitingCount="1" stopTime="0.00" timeLoss="15.33" rerouteNo="0" devices="tripinfo_AM_Northbound_straight.6 routing_AM_Northbound_straight.6" vType="car" speedFactor="0.88" vaporized=""/>
    <tripinfo id="AM_Northbound_straight.8" depart="30.00" departLane="Lup_0" departPos="5.10" departSpeed="0.00" departDelay="13.87" arrival="63.00" arrivalLane="northbound_lanes_0" arrivalPos="122.67" arrivalSpeed="16.93" duration="33.00" routeLength="311.00" waitingTime="0.00" waitingCount="0" stopTime="0.00" timeLoss="13.81" rerouteNo="0" devices="tripinfo_AM_Northbound_straight.8 routing_AM_Northbound_straight.8" vType="car" speedFactor="1.02" vaporized=""/>
    <tripinfo id="AM_Northbound_straight.9" depart="36.00" departLane="Lup_0" departPos="5.10" departSpeed="0.00" departDelay="17.86" arrival="63.00" arrivalLane="northbound_lanes_1" arrivalPos="122.67" arrivalSpeed="13.72" duration="27.00" routeLength="311.00" waitingTime="0.00" waitingCount="0" stopTime="0.00" timeLoss="3.90" rerouteNo="0" devices="tripinfo_AM_Northbound_straight.9 routing_AM_Northbound_straight.9" vType="car" speedFactor="0.83" vaporized=""/>
    <tripinfo id="AM_Rup_major.2" depart="9.00" departLane="Rup_0" departPos="5.10" departSpeed="0.00" departDelay="2.07" arrival="64.00" arrivalLane="northbound_lanes_0" arrivalPos="122.67" arrivalSpeed="17.64" duration="55.00" routeLength="637.97" waitingTime="0.00" waitingCount="0" stopTime="0.00" timeLoss="6.11" rerouteNo="0" devices="tripinfo_AM_Rup_major.2 routing_AM_Rup_major.2" vType="car" speedFactor="1.09" vaporized=""/>
    <tripinfo id="AM_Northbound_straight.10" depart="39.00" departLane="Lup_0" departPos="5.10" departSpeed="0.00" departDelay="18.84" arrival="65.00" arrivalLane="northbound_lanes_1" arrivalPos="122.67" arrivalSpeed="14.05" duration="26.00" routeLength="311.00" waitingTime="0.00" waitingCount="0" stopTime="0.00" timeLoss="4.60" rerouteNo="0" devices="tripinfo_AM_Northbound_straight.10 routing_AM_Northbound_straight.10" vType="car" speedFactor="0.87" vaporized=""/>
    <tripinfo id="AM_Northbound_straight.11" depart="42.00" departLane="Lup_0" departPos="5.10" departSpeed="0.00" departDelay="19.82" arrival="67.00" arrivalLane="northbound_lanes_1" arrivalPos="122.67" arrivalSpeed="15.48" duration="25.00" routeLength="311.00" waitingTime="0.00" waitingCount="0" stopTime="0.00" timeLoss="4.87" rerouteNo="0" devices="tripinfo_AM_Northbound_straight.11 routing_AM_Northbound_straight.11" vType="car" speedFactor="0.95" vaporized=""/>
    <tripinfo id="AM_Northbound_straight.12" depart="45.00" departLane="Lup_0" departPos="5.10" departSpeed="0.00" departDelay="20.81" arrival="67.00" arrivalLane="northbound_lanes_0" arrivalPos="122.67" arrivalSpeed="18.50" duration="22.00" routeLength="311.00" waitingTime="0.00" waitingCount="0" stopTime="0.00" timeLoss="4.90" rerouteNo="0" devices="tripinfo_AM_Northbound_straight.12 routing_AM_Northbound_straight.12" vType="car" speedFactor="1.13" vaporized=""/>
    <tripinfo id="AM_Southbound_straight.5" depart="41.00" departLane="southbound_lanes_0" departPos="5.10" departSpeed="0.00" departDelay="0.65" arrival="67.00" arrivalLane="Ldown_0" arrivalPos="161.93" arrivalSpeed="13.25" duration="26.00" routeLength="305.87" waitingTime="0.00" waitingCount="0" stopTime="0.00" timeLoss="3.87" rerouteNo="0" devices="tripinfo_AM_Southbound_straight.5 routing_AM_Southbound_straight.5" vType="car" speedFactor="0.85" vaporized=""/>
    <tripinfo id="AM_Southbound_straight.6" depart="49.00" departLane="southbound_lanes_0" departPos="5.10" departSpeed="0.00" departDelay="0.57" arrival="72.00" arrivalLane="Ldown_0" arrivalPos="161.93" arrivalSpeed="16.02" duration="23.00" routeLength="305.87" waitingTime="0.00" waitingCount="0" stopTime="0.00" timeLoss="4.25" rerouteNo="0" devices="tripinfo_AM_Southbound_straight.6 routing_AM_Southbound_straight.6" vType="car" speedFactor="1.02" vaporized=""/>
    <tripinfo id="AM_Rup_major.1" depart="6.00" departLane="Rup_0" departPos="5.10" departSpeed="0.00" departDelay="2.54" arrival="74.00" arrivalLane="northbound_lanes_0" arrivalPos="122.67" arrivalSpeed="14.57" duration="68.00" routeLength="637.97" waitingTime="0.00" waitingCount="0" stopTime="0.00" timeLoss="7.67" rerouteNo="0" devices="tripinfo_AM_Rup_major.1 routing_AM_Rup_major.1" vType="car" speedFactor="0.89" vaporized=""/>
    <tripinfo id="AM_Northbound_straight.13" depart="51.00" departLane="Lup_0" departPos="5.10" departSpeed="0.00" departDelay="24.79" arrival="75.00" arrivalLane="northbound_lanes_1" arrivalPos="122.67" arrivalSpeed="16.45" duration="24.00" routeLength="311.00" waitingTime="0.00" waitingCount="0" stopTime="0.00" timeLoss="5.18" rerouteNo="0" devices="tripinfo_AM_Northbound_straight.13 routing_AM_Northbound_straight.13" vType="car" speedFactor="1.01" vaporized=""/>
    <tripinfo id="AM_Rup_major.3" depart="12.00" departLane="Rup_0" departPos="5.10" departSpeed="0.00" departDelay="1.61" arrival="76.00" arrivalLane="northbound_lanes_0" arrivalPos="122.67" arrivalSpeed="14.64" duration="64.00" routeLength="637.97" waitingTime="0.00" waitingCount="0" stopTime="0.00" timeLoss="6.06" rerouteNo="0" devices="tripinfo_AM_Rup_major.3 routing_AM_Rup_major.3" vType="car" speedFactor="0.93" vaporized=""/>
    <tripinfo id="AM_Northbound_straight.14" depart="54.00" departLane="Lup_0" departPos="5.10" departSpeed="0.00" departDelay="25.78" arrival="78.00" arrivalLane="northbound_lanes_0" arrivalPos="122.67" arrivalSpeed="16.13" duration="24.00" routeLength="311.00" waitingTime="0.00" waitingCount="0" stopTime="0.00" timeLoss="4.98" rerouteNo="0" devices="tripinfo_AM_Northbound_straight.14 routing_AM_Northbound_straight.14" vType="car" speedFactor="1.02" vaporized=""/>
    <tripinfo id="AM_Southbound_straight.7" depart="57.00" departLane="southbound_lanes_0" departPos="5.10" departSpeed="0.00" departDelay="0.50" arrival="80.00" arrivalLane="Ldown_0" arrivalPos="161.93" arrivalSpeed="16.56" duration="23.00" routeLength="305.87" waitingTime="0.00" waitingCount="0" stopTime="0.00" timeLoss="4.48" rerouteNo="0" devices="tripinfo_AM_Southbound_straight.7 routing_AM_Southbound_straight.7" vType="car" speedFactor="1.04" vaporized=""/>
    <tripinfo id="AM_Northbound_straight.15" depart="57.00" departLane="Lup_0" departPos="5.10" departSpeed="0.00" departDelay="26.76" arrival="81.00" arrivalLane="northbound_lanes_1" arrivalPos="122.67" arrivalSpeed="15.08" duration="24.00" routeLength="311.00" waitingTime="0.00" waitingCount="0" stopTime="0.00" timeLoss="4.72" rerouteNo="0" devices="tripinfo_AM_Northbound_straight.15 routing_AM_Northbound_straight.15" vType="car" speedFactor="0.97" vaporized=""/>
    <tripinfo id="AM_Rup_major.4" depart="15.00" departLane="Rup_0" departPos="5.10" departSpeed="0.00" departDelay="1.14" arrival="83.00" arrivalLane="northbound_lanes_0" arrivalPos="122.67" arrivalSpeed="15.12" duration="68.00" routeLength="637.97" waitingTime="1.00" waitingCount="1" stopTime="0.00" timeLoss="10.76" rerouteNo="0" devices="tripinfo_AM_Rup_major.4 routing_AM_Rup_major.4" vType="car" speedFactor="0.94" vaporized=""/>
    <tripinfo id="AM_Northbound_straight.16" depart="60.00" departLane="Lup_0" departPos="5.10" departSpeed="0.00" departDelay="27.74" arrival="84.00" arrivalLane="northbound_lanes_0" arrivalPos="122.67" arrivalSpeed="16.66" duration="24.00" routeLength="311.00" waitingTime="0.00" waitingCount="0" stopTime="0.00" timeLoss="6.99" rerouteNo="0" devices="tripinfo_AM_Northbound_straight.16 routing_AM_Northbound_straight.16" vType="car" speedFactor="1.10" vaporized=""/>
    <tripinfo id="AM_Rup_major.7" depart="27.00" departLane="Rup_0" departPos="5.10" departSpeed="0.00" departDelay="2.75" arrival="88.00" arrivalLane="northbound_lanes_0" arrivalPos="122.67" arrivalSpeed="18.21" duration="61.00" routeLength="637.97" waitingTime="1.00" waitingCount="1" stopTime="0.00" timeLoss="14.76" rerouteNo="0" devices="tripinfo_AM_Rup_major.7 routing_AM_Rup_major.7" vType="car" speedFactor="1.15" vaporized=""/>
    <tripinfo id="AM_Southbound_straight.8" depart="65.00" departLane="southbound_lanes_0" departPos="5.10" departSpeed="0.00" departDelay="0.43" arrival="88.00" arrivalLane="Ldown_0" arrivalPos="161.93" arrivalSpeed="16.71" duration="23.00" routeLength="305.87" waitingTime="0.00" waitingCount="0" stopTime="0.00" timeLoss="4.75" rerouteNo="0" devices="tripinfo_AM_Southbound_straight.8 routing_AM_Southbound_straight.8" vType="car" speedFactor="1.03" vaporized=""/>
    <tripinfo id="AM_Northbound_straight.17" depart="66.00" departLane="Lup_0" departPos="5.10" departSpeed="0.00" departDelay="31.73" arrival="89.00" arrivalLane="northbound_lanes_1" arrivalPos="122.67" arrivalSpeed="17.27" duration="23.00" routeLength="311.00" waitingTime="0.00" waitingCount="0" stopTime="0.00" timeLoss="5.65" rerouteNo="0" devices="tripinfo_AM_Northbound_straight.17 routing_AM_Northbound_straight.17" vType="car" speedFactor="1.09" vaporized=""/>
    <tripinfo id="AM_Rup_major.5" depart="21.00" departLane="Rup_0" departPos="5.10" departSpeed="0.00" departDelay="3.68" arrival="91.00" arrivalLane="northbound_lanes_0" arrivalPos="122.67" arrivalSpeed="14.47" duration="70.00" routeLength="637.97" waitingTime="0.00" waitingCount="0" stopTime="0.00" timeLoss="9.60" rerouteNo="0" devices="tripinfo_AM_Rup_major.5 routing_AM_Rup_major.5" vType="car" speedFactor="0.89" vaporized=""/>
    <tripinfo id="AM_Rup_major.6" depart="24.00" departLane="Rup_0" departPos="5.10" departSpeed="0.00" departDelay="3.22" arrival="93.00" arrivalLane="northbound_lanes_0" arrivalPos="122.67" arrivalSpeed="14.36" duration="69.00" routeLength="637.97" waitingTime="0.00" waitingCount="0" stopTime="0.00" timeLoss="10.16" rerouteNo="0" devices="tripinfo_AM_Rup_major.6 routing_AM_Rup_major.6" vType="car" speedFactor="0.92" vaporized=""/>
    <tripinfo id="AM_Northbound_straight.18" depart="69.00" departLane="Lup_0" departPos="5.10" departSpeed="0.00" departDelay="32.71" arrival="94.00" arrivalLane="northbound_lanes_0" arrivalPos="122.67" arrivalSpeed="16.53" duration="25.00" routeLength="311.00" waitingTime="0.00" waitingCount="0" stopTime="0.00" timeLoss="6.88" rerouteNo="0" devices="tripinfo_AM_Northbound_straight.18 routing_AM_Northbound_straight.18" vType="car" speedFactor="1.04" vaporized=""/>
    <tripinfo id="AM_Northbound_turn.0" depart="3.00" departLane="Lup_0" departPos="5.10" departSpeed="0.00" departDelay="3.00" arrival="95.00" arrivalLane="Rdown_0" arrivalPos="493.55" arrivalSpeed="10.26" duration="92.00" routeLength="663.62" waitingTime="19.00" waitingCount="1" stopTime="0.00" timeLoss="32.10" rerouteNo="0" devices="tripinfo_AM_Northbound_turn.0 routing_AM_Northbound_turn.0" vType="car" speedFactor="0.94" vaporized=""/>
    <tripinfo id="AM_Northbound_turn.1" depart="18.00" departLane="Lup_0" departPos="5.10" departSpeed="0.00" departDelay="9.93" arrival="95.00" arrivalLane="Rdown_1" arrivalPos="493.55" arrivalSpeed="11.04" duration="77.00" routeLength="663.62" waitingTime="8.00" waitingCount="1" stopTime="0.00" timeLoss="22.79" rerouteNo="0" devices="tripinfo_AM_Northbound_turn.1 routing_AM_Northbound_turn.1" vType="car" speedFactor="1.05" vaporized=""/>
    <tripinfo id="AM_Rup_major.8" depart="30.00" departLane="Rup_0" departPos="5.10" departSpeed="0.00" departDelay="2.29" arrival="96.00" arrivalLane="northbound_lanes_0" arrivalPos="122.67" arrivalSpeed="18.76" duration="66.00" routeLength="637.97" waitingTime="5.00" waitingCount="1" stopTime="0.00" timeLoss="19.93" rerouteNo="0" devices="tripinfo_AM_Rup_major.8 routing_AM_Rup_major.8" vType="car" speedFactor="1.17" vaporized=""/>
    <tripinfo id="AM_Southbound_straight.9" depart="73.00" departLane="southbound_lanes_0" departPos="5.10" departSpeed="0.00" departDelay="0.36" arrival="96.00" arrivalLane="Ldown_0" arrivalPos="161.93" arrivalSpeed="16.24" duration="23.00" routeLength="305.87" waitingTime="0.00" waitingCount="0" stopTime="0.00" timeLoss="4.42" rerouteNo="0" devices="tripinfo_AM_Southbound_straight.9 routing_AM_Southbound_straight.9" vType="car" speedFactor="1.00" vaporized=""/>
    <tripinfo id="AM_Rup_major.10" depart="39.00" departLane="Rup_0" departPos="5.10" departSpeed="0.00" departDelay="4.36" arrival="98.00" arrivalLane="northbound_lanes_0" arrivalPos="122.67" arrivalSpeed="16.89" duration="59.00" routeLength="637.97" waitingTime="0.00" waitingCount="0" stopTime="0.00" timeLoss="6.72" rerouteNo="0" devices="tripinfo_AM_Rup_major.10 routing_AM_Rup_major.10" vType="car" speedFactor="1.04" vaporized=""/>
    <tripinfo id="AM_Rup_major.11" depart="42.00" departLane="Rup_0" departPos="5.10" departSpeed="0.00" departDelay="3.90" arrival="101.00" arrivalLane="northbound_lanes_0" arrivalPos="122.67" arrivalSpeed="16.15" duration="59.00" routeLength="637.97" waitingTime="0.00" waitingCount="0" stopTime="0.00" timeLoss="5.48" rerouteNo="0" devices="tripinfo_AM_Rup_major.11 routing_AM_Rup_major.11" vType="car" speedFactor="1.00" vaporized=""/>
    <tripinfo id="AM_Northbound_turn.2" depart="33.00" departLane="Lup_0" departPos="5.10" departSpeed="0.00" departDelay="16.86" arrival="104.00" arrivalLane="Rdown_0" arrivalPos="493.55" arrivalSpeed="10.38" duration="71.00" routeLength="663.62" waitingTime="0.00" waitingCount="0" stopTime="0.00" timeLoss="14.97" rerouteNo="0" devices="tripinfo_AM_Northbound_turn.2 routing_AM_Northbound_turn.2" vType="car" speedFactor="1.01" vaporized=""/>
    <tripinfo id="AM_Southbound_straight.10" depart="81.00" departLane="southbound_lanes_0" departPos="5.10" departSpeed="0.00" departDelay="0.29" arrival="104.00" arrivalLane="Ldown_0" arrivalPos="161.93" arrivalSpeed="16.98" duration="23.00" routeLength="305.87" waitingTime="0.00" waitingCount="0" stopTime="0.00" timeLoss="4.91" rerouteNo="0" devices="tripinfo_AM_Southbound_straight.10 routing_AM_Southbound_straight.10" vType="car" speedFactor="1.06" vaporized=""/>
    <tripinfo id="AM_Rup_major.9" depart="36.00" departLane="Rup_0" departPos="5.10" departSpeed="0.00" departDelay="4.82" arrival="105.00" arrivalLane="northbound_lanes_0" arrivalPos="122.67" arrivalSpeed="18.56" duration="69.00" routeLength="637.97" waitingTime="7.00" waitingCount="1" stopTime="0.00" timeLoss="23.04" rerouteNo="0" devices="tripinfo_AM_Rup_major.9 routing_AM_Rup_major.9" vType="car" speedFactor="1.18" vaporized=""/>
    <tripinfo id="AM_Rup_major.12" depart="45.00" departLane="Rup_0" departPos="5.10" departSpeed="0.00" departDelay="3.43" arrival="114.00" arrivalLane="northbound_lanes_0" arrivalPos="122.67" arrivalSpeed="13.97" duration="69.00" routeLength="637.97" waitingTime="0.00" waitingCount="0" stopTime="0.00" timeLoss="6.04" rerouteNo="0" devices="tripinfo_AM_Rup_major.12 routing_AM_Rup_major.12" vType="car" speedFactor="0.85" vaporized=""/>
    <tripinfo id="AM_Southbound_straight.11" depart="89.00" departLane="southbound_lanes_0" departPos="5.10" departSpeed="0.00" departDelay="0.22" arrival="114.00" arrivalLane="Ldown_0" arrivalPos="161.93" arrivalSpeed="13.77" duration="25.00" routeLength="305.87" waitingTime="0.00" waitingCount="0" stopTime="0.00" timeLoss="3.92" rerouteNo="0" devices="tripinfo_AM_Southbound_straight.11 routing_AM_Southbound_straight.11" vType="car" speedFactor="0.89" vaporized=""/>
    <tripinfo id="AM_Rup_major.13" depart="51.00" departLane="Rup_0" departPos="5.10" departSpeed="0.00" departDelay="5.97" arrival="116.00" arrivalLane="northbound_lanes_0" arrivalPos="122.67" arrivalSpeed="16.29" duration="65.00" routeLength="637.97" waitingTime="0.00" waitingCount="0" stopTime="0.00" timeLoss="10.96" rerouteNo="0" devices="tripinfo_AM_Rup_major.13 routing_AM_Rup_major.13" vType="car" speedFactor="1.00" vaporized=""/>
    <tripinfo id="AM_Northbound_turn.3" depart="48.00" departLane="Lup_0" departPos="5.10" departSpeed="0.00" departDelay="23.79" arrival="117.00" arrivalLane="Rdown_0" arrivalPos="493.55" arrivalSpeed="9.19" duration="69.00" routeLength="663.62" waitingTime="0.00" waitingCount="0" stopTime="0.00" timeLoss="8.27" rerouteNo="0" devices="tripinfo_AM_Northbound_turn.3 routing_AM_Northbound_turn.3" vType="car" speedFactor="0.93" vaporized=""/>
    <tripinfo id="AM_Rup_major.14" depart="54.00" departLane="Rup_0" departPos="5.10" departSpeed="0.00" departDelay="5.50" arrival="117.00" arrivalLane="northbound_lanes_0" arrivalPos="122.67" arrivalSpeed="15.19" duration="63.00" routeLength="637.97" waitingTime="0.00" waitingCount="0" stopTime="0.00" timeLoss="7.89" rerouteNo="0" devices="tripinfo_AM_Rup_major.14 routing_AM_Rup_major.14" vType="car" speedFactor="0.97" vaporized=""/>
    <tripinfo id="AM_Rup_major.15" depart="57.00" departLane="Rup_0" departPos="5.10" departSpeed="0.00" departDelay="5.04" arrival="119.00" arrivalLane="northbound_lanes_0" arrivalPos="122.67" arrivalSpeed="18.32" duration="62.00" routeLength="637.97" waitingTime="0.00" waitingCount="0" stopTime="0.00" timeLoss="13.84" rerouteNo="0" devices="tripinfo_AM_Rup_major.15 routing_AM_Rup_major.15" vType="car" speedFactor="1.12" vaporized=""/>
    <tripinfo id="AM_Southbound_straight.12" depart="97.00" departLane="southbound_lanes_0" departPos="5.10" departSpeed="0.00" departDelay="0.15" arrival="119.00" arrivalLane="Ldown_0" arrivalPos="161.93" arrivalSpeed="18.06" duration="22.00" routeLength="305.87" waitingTime="0.00" waitingCount="0" stopTime="0.00" timeLoss="4.33" rerouteNo="0" devices="tripinfo_AM_Southbound_straight.12 routing_AM_Southbound_straight.12" vType="car" speedFactor="1.10" vaporized=""/>
    <tripinfo id="AM_Rup_major.16" depart="60.00" departLane="Rup_0" departPos="5.10" departSpeed="0.00" departDelay="4.58" arrival="123.00" arrivalLane="northbound_lanes_0" arrivalPos="122.67" arrivalSpeed="14.74" duration="63.00" routeLength="637.97" waitingTime="0.00" waitingCount="0" stopTime="0.00" timeLoss="6.06" rerouteNo="0" devices="tripinfo_AM_Rup_major.16 routing_AM_Rup_major.16" vType="car" speedFactor="0.94" vaporized=""/>
    <tripinfo id="AM_Rup_major.17" depart="66.00" departLane="Rup_0" departPos="5.10" departSpeed="0.00" departDelay="7.11" arrival="127.00" arrivalLane="northbound_lanes_0" arrivalPos="122.67" arrivalSpeed="16.85" duration="61.00" routeLength="637.97" waitingTime="0.00" waitingCount="0" stopTime="0.00" timeLoss="8.93" rerouteNo="0" devices="tripinfo_AM_Rup_major.17 routing_AM_Rup_major.17" vType="car" speedFactor="1.02" vaporized=""/>
    <tripinfo id="AM_Southbound_straight.13" depart="105.00" departLane="southbound_lanes_0" departPos="5.10" departSpeed="0.00" departDelay="0.08" arrival="128.00" arrivalLane="Ldown_0" arrivalPos="161.93" arrivalSpeed="15.87" duration="23.00" routeLength="305.87" waitingTime="0.00" waitingCount="0" stopTime="0.00" timeLoss="4.73" rerouteNo="0" devices="tripinfo_AM_Southbound_straight.13 routing_AM_Southbound_straight.13" vType="car" speedFactor="1.02" vaporized=""/>
    <tripinfo id="AM_Rup_major.18" depart="69.00" departLane="Rup_0" departPos="5.10" departSpeed="0.00" departDelay="6.65" arrival="129.00" arrivalLane="northbound_lanes_0" arrivalPos="122.67" arrivalSpeed="16.51" duration="60.00" routeLength="637.97" waitingTime="0.00" waitingCount="0" stopTime="0.00" timeLoss="9.28" rerouteNo="0" devices="tripinfo_AM_Rup_major.18 routing_AM_Rup_major.18" vType="car" speedFactor="1.06" vaporized=""/>
    <tripinfo id="AM_Rup_major.19" depart="72.00" departLane="Rup_0" departPos="5.10" departSpeed="0.00" departDelay="6.18" arrival="132.00" arrivalLane="northbound_lanes_0" arrivalPos="122.67" arrivalSpeed="16.22" duration="60.00" routeLength="637.97" waitingTime="0.00" waitingCount="0" stopTime="0.00" timeLoss="6.59" rerouteNo="0" devices="tripinfo_AM_Rup_major.19 routing_AM_Rup_major.19" vType="car" speedFactor="1.01" vaporized=""/>
    <tripinfo id="AM_Northbound_turn.4" depart="63.00" departLane="Lup_0" departPos="5.10" departSpeed="0.00" departDelay="30.72" arrival="135.00" arrivalLane="Rdown_0" arrivalPos="493.55" arrivalSpeed="9.26" duration="72.00" routeLength="663.62" waitingTime="0.00" waitingCount="0" stopTime="0.00" timeLoss="9.34" rerouteNo="0" devices="tripinfo_AM_Northbound_turn.4 routing_AM_Northbound_turn.4" vType="car" speedFactor="0.90" vaporized=""/>
    <tripinfo id="AM_Rup_major.20" depart="75.00" departLane="Rup_0" departPos="5.10" departSpeed="0.00" departDelay="5.72" arrival="135.00" arrivalLane="northbound_lanes_0" arrivalPos="122.67" arrivalSpeed="15.90" duration="60.00" routeLength="637.97" waitingTime="0.00" waitingCount="0" stopTime="0.00" timeLoss="5.88" rerouteNo="0" devices="tripinfo_AM_Rup_major.20 routing_AM_Rup_major.20" vType="car" speedFactor="1.00" vaporized=""/>
    <tripinfo id="AM_Southbound_turn.0" depart="3.00" departLane="southbound_lanes_0" departPos="5.10" departSpeed="0.00" departDelay="3.00" arrival="137.00" arrivalLane="Rdown_0" arrivalPos="493.55" arrivalSpeed="11.60" duration="134.00" routeLength="643.45" waitingTime="71.00" waitingCount="1" stopTime="0.00" timeLoss="83.71" rerouteNo="0" devices="tripinfo_AM_Southbound_turn.0 routing_AM_Southbound_turn.0" vType="car" speedFactor="1.08" vaporized=""/>
    <tripinfo id="AM_Southbound_straight.14" depart="113.00" departLane="southbound_lanes_0" departPos="5.10" departSpeed="0.00" departDelay="0.01" arrival="137.00" arrivalLane="Ldown_0" arrivalPos="161.93" arrivalSpeed="15.01" duration="24.00" routeLength="305.87" waitingTime="0.00" waitingCount="0" stopTime="0.00" timeLoss="4.71" rerouteNo="0" devices="tripinfo_AM_Southbound_straight.14 routing_AM_Southbound_straight.14" vType="car" speedFactor="0.96" vaporized=""/>
    <tripinfo id="AM_Rup_major.21" depart="81.00" departLane="Rup_0" departPos="5.10" departSpeed="0.00" departDelay="8.26" arrival="138.00" arrivalLane="northbound_lanes_0" arrivalPos="122.67" arrivalSpeed="16.19" duration="57.00" routeLength="637.97" waitingTime="0.00" waitingCount="0" stopTime="0.00" timeLoss="5.83" rerouteNo="0" devices="tripinfo_AM_Rup_major.21 routing_AM_Rup_major.21" vType="car" speedFactor="1.04" vaporized=""/>