<?xml version="1.0" encoding="UTF-8"?>

<!-- generated on 2026-05-25T14:28:02.182655+08:00 by Eclipse SUMO GUI 1.26.0
<sumoConfiguration xmlns:xsi="http://www.w3.org/2001/XMLSchema-instance" xsi:noNamespaceSchemaLocation="http://sumo.dlr.de/xsd/sumoConfiguration.xsd">

    <input>
        <net-file value="C:\Users\mmmma\TrafficProject\final\modified_cases\modified_afternoon\optimized_initial8_network.net.xml"/>
        <route-files value="C:\Users\mmmma\TrafficProject\final\modified_cases\modified_afternoon\routes_afternoon.rou.xml"/>
        <additional-files value="C:\Users\mmmma\TrafficProject\final\modified_cases\modified_afternoon\detectors.add.xml"/>
    </input>

    <output>
        <tripinfo-output value="C:\Users\mmmma\TrafficProject\final\modified_cases\modified_afternoon\outputs_afternoon/tripinfo.xml"/>
        <edgedata-output value="C:\Users\mmmma\TrafficProject\final\modified_cases\modified_afternoon\outputs_afternoon/edge_data.xml"/>
    </output>

    <time>
        <begin value="0"/>
        <end value="3600"/>
    </time>

    <gui_only>
        <start value="true"/>
    </gui_only>

</sumoConfiguration>
-->

<detector xmlns:xsi="http://www.w3.org/2001/XMLSchema-instance" xsi:noNamespaceSchemaLocation="http://sumo.dlr.de/xsd/det_e2_file.xsd">
   <interval begin="0.00" end="60.00" id="queue_Lup_0" sampledSeconds="106.03" nVehEntered="12" nVehLeft="9" nVehSeen="12" meanSpeed="13.68" meanTimeLoss="1.49" meanOccupancy="4.34" maxOccupancy="10.00" meanMaxJamLengthInVehicles="0.05" meanMaxJamLengthInMeters="0.25" maxJamLengthInVehicles="1" maxJamLengthInMeters="5.00" jamLengthInVehiclesSum="3" jamLengthInMetersSum="15.00" meanHaltingDuration="2.50" maxHaltingDuration="4.00" haltingDurationSum="5.00" meanIntervalHaltingDuration="2.50" maxIntervalHaltingDuration="4.00" intervalHaltingDurationSum="5.00" startedHalts="2.00" meanVehicleNumber="1.88" maxVehicleNumber="4" />
   <interval begin="0.00" end="60.00" id="queue_Lup_1" sampledSeconds="22.17" nVehEntered="2" nVehLeft="2" nVehSeen="2" meanSpeed="14.79" meanTimeLoss="0.49" meanOccupancy="0.88" maxOccupancy="2.50" meanMaxJamLengthInVehicles="0.00" meanMaxJamLengthInMeters="0.00" maxJamLengthInVehicles="0" maxJamLengthInMeters="0.00" jamLengthInVehiclesSum="0" jamLengthInMetersSum="0.00" meanHaltingDuration="0.00" maxHaltingDuration="0.00" haltingDurationSum="0.00" meanIntervalHaltingDuration="0.00" maxIntervalHaltingDuration="0.00" intervalHaltingDurationSum="0.00" startedHalts="0.00" meanVehicleNumber="0.38" maxVehicleNumber="1" />
   <interval begin="0.00" end="60.00" id="queue_Rup_0" sampledSeconds="38.00" nVehEntered="7" nVehLeft="5" nVehSeen="7" meanSpeed="14.40" meanTimeLoss="0.32" meanOccupancy="1.58" maxOccupancy="5.00" meanMaxJamLengthInVehicles="0.00" meanMaxJamLengthInMeters="0.00" maxJamLengthInVehicles="0" maxJamLengthInMeters="0.00" jamLengthInVehiclesSum="0" jamLengthInMetersSum="0.00" meanHaltingDuration="0.00" maxHaltingDuration="0.00" haltingDurationSum="0.00" meanIntervalHaltingDuration="0.00" maxIntervalHaltingDuration="0.00" intervalHaltingDurationSum="0.00" startedHalts="0.00" meanVehicleNumber="0.72" maxVehicleNumber="2" />
   <interval begin="0.00" end="60.00" id="queue_Rup_1" sampledSeconds="41.95" nVehEntered="4" nVehLeft="2" nVehSeen="4" meanSpeed="8.40" meanTimeLoss="3.74" meanOccupancy="1.74" maxOccupancy="7.50" meanMaxJamLengthInVehicles="0.17" meanMaxJamLengthInMeters="0.83" maxJamLengthInVehicles="1" maxJamLengthInMeters="5.00" jamLengthInVehiclesSum="10" jamLengthInMetersSum="50.00" meanHaltingDuration="6.00" maxHaltingDuration="11.00" haltingDurationSum="12.00" meanIntervalHaltingDuration="6.00" maxIntervalHaltingDuration="11.00" intervalHaltingDurationSum="12.00" startedHalts="2.00" meanVehicleNumber="0.73" maxVehicleNumber="3" />
   <interval begin="0.00" end="60.00" id="queue_Sbound_0" sampledSeconds="61.24" nVehEntered="15" nVehLeft="14" nVehSeen="15" meanSpeed="14.95" meanTimeLoss="0.26" meanOccupancy="8.00" maxOccupancy="16.67" meanMaxJamLengthInVehicles="0.00" meanMaxJamLengthInMeters="0.00" maxJamLengthInVehicles="0" maxJamLengthInMeters="0.00" jamLengthInVehiclesSum="0" jamLengthInMetersSum="0.00" meanHaltingDuration="0.00" maxHaltingDuration="0.00" haltingDurationSum="0.00" meanIntervalHaltingDuration="0.00" maxIntervalHaltingDuration="0.00" intervalHaltingDurationSum="0.00" startedHalts="0.00" meanVehicleNumber="1.27" maxVehicleNumber="2" />
   <interval begin="0.00" end="60.00" id="queue_Sbound_1" sampledSeconds="110.01" nVehEntered="4" nVehLeft="0" nVehSeen="4" meanSpeed="1.91" meanTimeLoss="24.62" meanOccupancy="10.93" maxOccupancy="27.17" meanMaxJamLengthInVehicles="1.45" meanMaxJamLengthInMeters="6.54" maxJamLengthInVehicles="4" maxJamLengthInMeters="23.95" jamLengthInVehiclesSum="87" jamLengthInMetersSum="392.44" meanHaltingDuration="22.75" maxHaltingDuration="43.00" haltingDurationSum="91.00" meanIntervalHaltingDuration="22.75" maxIntervalHaltingDuration="43.00" intervalHaltingDurationSum="91.00" startedHalts="4.00" meanVehicleNumber="1.87" maxVehicleNumber="4" />
   <interval begin="60.00" end="120.00" id="queue_Lup_0" sampledSeconds="294.01" nVehEntered="12" nVehLeft="8" nVehSeen="15" meanSpeed="2.19" meanTimeLoss="16.91" meanOccupancy="12.30" maxOccupancy="17.50" meanMaxJamLengthInVehicles="3.88" meanMaxJamLengthInMeters="26.76" maxJamLengthInVehicles="7" maxJamLengthInMeters="50.07" jamLengthInVehiclesSum="233" jamLengthInMetersSum="1605.48" meanHaltingDuration="34.28" maxHaltingDuration="58.00" haltingDurationSum="240.00" meanIntervalHaltingDuration="34.28" maxIntervalHaltingDuration="58.00" intervalHaltingDurationSum="240.00" startedHalts="7.00" meanVehicleNumber="5.02" maxVehicleNumber="7" />
   <interval begin="60.00" end="120.00" id="queue_Lup_1" sampledSeconds="213.01" nVehEntered="7" nVehLeft="0" nVehSeen="7" meanSpeed="0.66" meanTimeLoss="29.15" meanOccupancy="8.91" maxOccupancy="17.50" meanMaxJamLengthInVehicles="3.08" meanMaxJamLengthInMeters="21.05" maxJamLengthInVehicles="7" maxJamLengthInMeters="50.07" jamLengthInVehiclesSum="185" jamLengthInMetersSum="1262.73" meanHaltingDuration="27.43" maxHaltingDuration="51.00" haltingDurationSum="192.00" meanIntervalHaltingDuration="27.43" maxIntervalHaltingDuration="51.00" intervalHaltingDurationSum="192.00" startedHalts="7.00" meanVehicleNumber="3.57" maxVehicleNumber="7" />
   <interval begin="60.00" end="120.00" id="queue_Rup_0" sampledSeconds="28.15" nVehEntered="1" nVehLeft="3" nVehSeen="3" meanSpeed="13.15" meanTimeLoss="0.59" meanOccupancy="1.09" maxOccupancy="5.00" meanMaxJamLengthInVehicles="0.00" meanMaxJamLengthInMeters="0.00" maxJamLengthInVehicles="0" maxJamLengthInMeters="0.00" jamLengthInVehiclesSum="0" jamLengthInMetersSum="0.00" meanHaltingDuration="0.00" maxHaltingDuration="0.00" haltingDurationSum="0.00" meanIntervalHaltingDuration="0.00" maxIntervalHaltingDuration="0.00" intervalHaltingDurationSum="0.00" startedHalts="0.00" meanVehicleNumber="0.50" maxVehicleNumber="2" />
   <interval begin="60.00" end="120.00" id="queue_Rup_1" sampledSeconds="330.55" nVehEntered="7" nVehLeft="0" nVehSeen="9" meanSpeed="1.20" meanTimeLoss="32.83" meanOccupancy="13.88" maxOccupancy="22.50" meanMaxJamLengthInVehicles="4.67" meanMaxJamLengthInMeters="32.51" maxJamLengthInVehicles="8" maxJamLengthInMeters="57.51" jamLengthInVehiclesSum="280" jamLengthInMetersSum="1950.50" meanHaltingDuration="37.25" maxHaltingDuration="71.00" haltingDurationSum="298.00" meanIntervalHaltingDuration="35.75" maxIntervalHaltingDuration="60.00" intervalHaltingDurationSum="286.00" startedHalts="6.00" meanVehicleNumber="5.58" maxVehicleNumber="9" />
   <interval begin="60.00" end="120.00" id="queue_Sbound_0" sampledSeconds="72.36" nVehEntered="17" nVehLeft="17" nVehSeen="18" meanSpeed="15.58" meanTimeLoss="0.27" meanOccupancy="9.12" maxOccupancy="16.67" meanMaxJamLengthInVehicles="0.00" meanMaxJamLengthInMeters="0.00" maxJamLengthInVehicles="0" maxJamLengthInMeters="0.00" jamLengthInVehiclesSum="0" jamLengthInMetersSum="0.00" meanHaltingDuration="0.00" maxHaltingDuration="0.00" haltingDurationSum="0.00" meanIntervalHaltingDuration="0.00" maxIntervalHaltingDuration="0.00" intervalHaltingDurationSum="0.00" startedHalts="0.00" meanVehicleNumber="1.48" maxVehicleNumber="2" />
   <interval begin="60.00" end="120.00" id="queue_Sbound_1" sampledSeconds="40.48" nVehEntered="4" nVehLeft="8" nVehSeen="8" meanSpeed="7.66" meanTimeLoss="2.79" meanOccupancy="4.73" maxOccupancy="27.17" meanMaxJamLengthInVehicles="0.23" meanMaxJamLengthInMeters="1.46" maxJamLengthInVehicles="4" maxJamLengthInMeters="23.82" jamLengthInVehiclesSum="14" jamLengthInMetersSum="87.35" meanHaltingDuration="20.00" maxHaltingDuration="32.00" haltingDurationSum="60.00" meanIntervalHaltingDuration="4.00" maxIntervalHaltingDuration="5.00" intervalHaltingDurationSum="12.00" startedHalts="0.00" meanVehicleNumber="0.77" maxVehicleNumber="4" />
   <interval begin="120.00" end="180.00" id="queue_Lup_0" sampledSeconds="544.91" nVehEntered="4" nVehLeft="2" nVehSeen="11" meanSpeed="0.43" meanTimeLoss="48.28" meanOccupancy="21.68" maxOccupancy="23.84" meanMaxJamLengthInVehicles="8.77" meanMaxJamLengthInMeters="61.36" maxJamLengthInVehicles="9" maxJamLengthInMeters="62.69" jamLengthInVehiclesSum="526" jamLengthInMetersSum="3681.87" meanHaltingDuration="85.33" maxHaltingDuration="118.00" haltingDurationSum="768.00" meanIntervalHaltingDuration="58.67" maxIntervalHaltingDuration="60.00" intervalHaltingDurationSum="528.00" startedHalts="2.00" meanVehicleNumber="9.12" maxVehicleNumber="10" />
   <interval begin="120.00" end="180.00" id="queue_Lup_1" sampledSeconds="522.47" nVehEntered="2" nVehLeft="0" nVehSeen="9" meanSpeed="0.02" meanTimeLoss="57.97" meanOccupancy="20.86" maxOccupancy="21.34" meanMaxJamLengthInVehicles="8.63" meanMaxJamLengthInMeters="60.48" maxJamLengthInVehicles="9" maxJamLengthInMeters="62.69" jamLengthInVehiclesSum="518" jamLengthInMetersSum="3628.79" meanHaltingDuration="79.11" maxHaltingDuration="111.00" haltingDurationSum="712.00" meanIntervalHaltingDuration="57.78" maxIntervalHaltingDuration="60.00" intervalHaltingDurationSum="520.00" startedHalts="2.00" meanVehicleNumber="8.72" maxVehicleNumber="9" />
   <interval begin="120.00" end="180.00" id="queue_Rup_0" sampledSeconds="32.75" nVehEntered="2" nVehLeft="2" nVehSeen="2" meanSpeed="12.52" meanTimeLoss="1.30" meanOccupancy="1.34" maxOccupancy="2.50" meanMaxJamLengthInVehicles="0.00" meanMaxJamLengthInMeters="0.00" maxJamLengthInVehicles="0" maxJamLengthInMeters="0.00" jamLengthInVehiclesSum="0" jamLengthInMetersSum="0.00" meanHaltingDuration="0.00" maxHaltingDuration="0.00" haltingDurationSum="0.00" meanIntervalHaltingDuration="0.00" maxIntervalHaltingDuration="0.00" intervalHaltingDurationSum="0.00" startedHalts="0.00" meanVehicleNumber="0.60" maxVehicleNumber="1" />
   <interval begin="120.00" end="180.00" id="queue_Rup_1" sampledSeconds="508.64" nVehEntered="6" nVehLeft="13" nVehSeen="15" meanSpeed="1.78" meanTimeLoss="28.38" meanOccupancy="20.82" maxOccupancy="30.00" meanMaxJamLengthInVehicles="6.23" meanMaxJamLengthInMeters="45.08" maxJamLengthInVehicles="11" maxJamLengthInMeters="81.29" jamLengthInVehiclesSum="374" jamLengthInMetersSum="2704.74" meanHaltingDuration="56.33" maxHaltingDuration="101.00" haltingDurationSum="676.00" meanIntervalHaltingDuration="31.50" maxIntervalHaltingDuration="39.00" intervalHaltingDurationSum="378.00" startedHalts="4.00" meanVehicleNumber="8.65" maxVehicleNumber="12" />
   <interval begin="120.00" end="180.00" id="queue_Sbound_0" sampledSeconds="70.12" nVehEntered="17" nVehLeft="16" nVehSeen="18" meanSpeed="15.44" meanTimeLoss="0.23" meanOccupancy="8.98" maxOccupancy="16.67" meanMaxJamLengthInVehicles="0.00" meanMaxJamLengthInMeters="0.00" maxJamLengthInVehicles="0" maxJamLengthInMeters="0.00" jamLengthInVehiclesSum="0" jamLengthInMetersSum="0.00" meanHaltingDuration="0.00" maxHaltingDuration="0.00" haltingDurationSum="0.00" meanIntervalHaltingDuration="0.00" maxIntervalHaltingDuration="0.00" intervalHaltingDurationSum="0.00" startedHalts="0.00" meanVehicleNumber="1.48" maxVehicleNumber="2" />
   <interval begin="120.00" end="180.00" id="queue_Sbound_1" sampledSeconds="46.25" nVehEntered="4" nVehLeft="2" nVehSeen="4" meanSpeed="5.40" meanTimeLoss="7.89" meanOccupancy="4.17" maxOccupancy="10.50" meanMaxJamLengthInVehicles="0.42" meanMaxJamLengthInMeters="1.16" maxJamLengthInVehicles="2" maxJamLengthInMeters="8.81" jamLengthInVehiclesSum="25" jamLengthInMetersSum="69.75" meanHaltingDuration="13.50" maxHaltingDuration="20.00" haltingDurationSum="27.00" meanIntervalHaltingDuration="13.50" maxIntervalHaltingDuration="20.00" intervalHaltingDurationSum="27.00" startedHalts="2.00" meanVehicleNumber="0.82" maxVehicleNumber="2" />
   <interval begin="180.00" end="240.00" id="queue_Lup_0" sampledSeconds="356.56" nVehEntered="13" nVehLeft="19" nVehSeen="22" meanSpeed="7.47" meanTimeLoss="8.64" meanOccupancy="14.10" maxOccupancy="21.34" meanMaxJamLengthInVehicles="1.53" meanMaxJamLengthInMeters="10.42" maxJamLengthInVehicles="9" maxJamLengthInMeters="62.69" jamLengthInVehiclesSum="92" jamLengthInMetersSum="625.05" meanHaltingDuration="95.56" maxHaltingDuration="123.00" haltingDurationSum="860.00" meanIntervalHaltingDuration="10.22" maxIntervalHaltingDuration="15.00" intervalHaltingDurationSum="92.00" startedHalts="0.00" meanVehicleNumber="6.20" maxVehicleNumber="9" />
   <interval begin="180.00" end="240.00" id="queue_Lup_1" sampledSeconds="409.63" nVehEntered="11" nVehLeft="20" nVehSeen="20" meanSpeed="9.22" meanTimeLoss="8.94" meanOccupancy="16.34" maxOccupancy="23.52" meanMaxJamLengthInVehicles="1.55" meanMaxJamLengthInMeters="10.56" maxJamLengthInVehicles="9" maxJamLengthInMeters="63.99" jamLengthInVehiclesSum="93" jamLengthInMetersSum="633.81" meanHaltingDuration="89.44" maxHaltingDuration="117.00" haltingDurationSum="805.00" meanIntervalHaltingDuration="10.33" maxIntervalHaltingDuration="15.00" intervalHaltingDurationSum="93.00" startedHalts="0.00" meanVehicleNumber="7.10" maxVehicleNumber="10" />
   <interval begin="180.00" end="240.00" id="queue_Rup_0" sampledSeconds="101.91" nVehEntered="13" nVehLeft="11" nVehSeen="13" meanSpeed="10.30" meanTimeLoss="2.64" meanOccupancy="4.19" maxOccupancy="7.50" meanMaxJamLengthInVehicles="0.47" meanMaxJamLengthInMeters="2.33" maxJamLengthInVehicles="1" maxJamLengthInMeters="5.00" jamLengthInVehiclesSum="28" jamLengthInMetersSum="140.00" meanHaltingDuration="29.00" maxHaltingDuration="29.00" haltingDurationSum="29.00" meanIntervalHaltingDuration="29.00" maxIntervalHaltingDuration="29.00" intervalHaltingDurationSum="29.00" startedHalts="1.00" meanVehicleNumber="1.87" maxVehicleNumber="4" />
   <interval begin="180.00" end="240.00" id="queue_Rup_1" sampledSeconds="350.76" nVehEntered="25" nVehLeft="21" nVehSeen="27" meanSpeed="5.93" meanTimeLoss="7.84" meanOccupancy="14.47" maxOccupancy="25.00" meanMaxJamLengthInVehicles="2.93" meanMaxJamLengthInMeters="19.88" maxJamLengthInVehicles="6" maxJamLengthInMeters="42.58" jamLengthInVehiclesSum="176" jamLengthInMetersSum="1193.00" meanHaltingDuration="30.33" maxHaltingDuration="52.00" haltingDurationSum="182.00" meanIntervalHaltingDuration="30.33" maxIntervalHaltingDuration="52.00" intervalHaltingDurationSum="182.00" startedHalts="6.00" meanVehicleNumber="6.23" maxVehicleNumber="11" />
   <interval begin="180.00" end="240.00" id="queue_Sbound_0" sampledSeconds="71.09" nVehEntered="17" nVehLeft="18" nVehSeen="19" meanSpeed="15.83" meanTimeLoss="0.22" meanOccupancy="8.68" maxOccupancy="16.67" meanMaxJamLengthInVehicles="0.00" meanMaxJamLengthInMeters="0.00" maxJamLengthInVehicles="0" maxJamLengthInMeters="0.00" jamLengthInVehiclesSum="0" jamLengthInMetersSum="0.00" meanHaltingDuration="0.00" maxHaltingDuration="0.00" haltingDurationSum="0.00" meanIntervalHaltingDuration="0.00" maxIntervalHaltingDuration="0.00" intervalHaltingDurationSum="0.00" startedHalts="0.00" meanVehicleNumber="1.45" maxVehicleNumber="2" />
   <interval begin="180.00" end="240.00" id="queue_Sbound_1" sampledSeconds="269.60" nVehEntered="5" nVehLeft="0" nVehSeen="7" meanSpeed="0.62" meanTimeLoss="37.16" meanOccupancy="31.53" maxOccupancy="52.17" meanMaxJamLengthInVehicles="4.10" meanMaxJamLengthInMeters="24.56" maxJamLengthInVehicles="6" maxJamLengthInMeters="38.91" jamLengthInVehiclesSum="246" jamLengthInMetersSum="1473.43" meanHaltingDuration="46.17" maxHaltingDuration="80.00" haltingDurationSum="277.00" meanIntervalHaltingDuration="41.67" maxIntervalHaltingDuration="60.00" intervalHaltingDurationSum="250.00" startedHalts="4.00" meanVehicleNumber="4.53" maxVehicleNumber="7" />
   <interval begin="240.00" end="300.00" id="queue_Lup_0" sampledSeconds="261.64" nVehEntered="16" nVehLeft="12" nVehSeen="19" meanSpeed="3.49" meanTimeLoss="10.82" meanOccupancy="10.97" maxOccupancy="20.00" meanMaxJamLengthInVehicles="3.02" meanMaxJamLengthInMeters="20.63" maxJamLengthInVehicles="7" maxJamLengthInMeters="50.02" jamLengthInVehiclesSum="181" jamLengthInMetersSum="1238.06" meanHaltingDuration="26.86" maxHaltingDuration="49.00" haltingDurationSum="188.00" meanIntervalHaltingDuration="26.86" maxIntervalHaltingDuration="49.00" intervalHaltingDurationSum="188.00" startedHalts="7.00" meanVehicleNumber="4.52" maxVehicleNumber="8" />
   <interval begin="240.00" end="300.00" id="queue_Lup_1" sampledSeconds="177.00" nVehEntered="6" nVehLeft="0" nVehSeen="6" meanSpeed="0.66" meanTimeLoss="28.39" meanOccupancy="7.38" maxOccupancy="15.00" meanMaxJamLengthInVehicles="2.58" meanMaxJamLengthInMeters="17.13" maxJamLengthInVehicles="6" maxJamLengthInMeters="42.57" jamLengthInVehiclesSum="155" jamLengthInMetersSum="1027.86" meanHaltingDuration="26.83" maxHaltingDuration="55.00" haltingDurationSum="161.00" meanIntervalHaltingDuration="26.83" maxIntervalHaltingDuration="55.00" intervalHaltingDurationSum="161.00" startedHalts="6.00" meanVehicleNumber="2.95" maxVehicleNumber="6" />
   <interval begin="240.00" end="300.00" id="queue_Rup_0" sampledSeconds="49.36" nVehEntered="2" nVehLeft="4" nVehSeen="4" meanSpeed="11.75" meanTimeLoss="1.63" meanOccupancy="1.97" maxOccupancy="5.00" meanMaxJamLengthInVehicles="0.00" meanMaxJamLengthInMeters="0.00" maxJamLengthInVehicles="0" maxJamLengthInMeters="0.00" jamLengthInVehiclesSum="0" jamLengthInMetersSum="0.00" meanHaltingDuration="29.00" maxHaltingDuration="29.00" haltingDurationSum="29.00" meanIntervalHaltingDuration="0.00" maxIntervalHaltingDuration="0.00" intervalHaltingDurationSum="0.00" startedHalts="0.00" meanVehicleNumber="0.88" maxVehicleNumber="2" />
   <interval begin="240.00" end="300.00" id="queue_Rup_1" sampledSeconds="579.17" nVehEntered="6" nVehLeft="0" nVehSeen="12" meanSpeed="0.36" meanTimeLoss="46.63" meanOccupancy="24.20" maxOccupancy="30.00" meanMaxJamLengthInVehicles="9.10" meanMaxJamLengthInMeters="65.77" maxJamLengthInVehicles="12" maxJamLengthInMeters="87.62" jamLengthInVehiclesSum="546" jamLengthInMetersSum="3946.10" meanHaltingDuration="61.17" maxHaltingDuration="112.00" haltingDurationSum="734.00" meanIntervalHaltingDuration="46.00" maxIntervalHaltingDuration="60.00" intervalHaltingDurationSum="552.00" startedHalts="6.00" meanVehicleNumber="9.70" maxVehicleNumber="12" />
   <interval begin="240.00" end="300.00" id="queue_Sbound_0" sampledSeconds="72.82" nVehEntered="18" nVehLeft="17" nVehSeen="19" meanSpeed="15.86" meanTimeLoss="0.24" meanOccupancy="9.14" maxOccupancy="16.67" meanMaxJamLengthInVehicles="0.00" meanMaxJamLengthInMeters="0.00" maxJamLengthInVehicles="0" maxJamLengthInMeters="0.00" jamLengthInVehiclesSum="0" jamLengthInMetersSum="0.00" meanHaltingDuration="0.00" maxHaltingDuration="0.00" haltingDurationSum="0.00" meanIntervalHaltingDuration="0.00" maxIntervalHaltingDuration="0.00" intervalHaltingDurationSum="0.00" startedHalts="0.00" meanVehicleNumber="1.47" maxVehicleNumber="2" />
   <interval begin="240.00" end="300.00" id="queue_Sbound_1" sampledSeconds="127.45" nVehEntered="4" nVehLeft="11" nVehSeen="11" meanSpeed="3.36" meanTimeLoss="9.23" meanOccupancy="16.01" maxOccupancy="52.17" meanMaxJamLengthInVehicles="0.92" meanMaxJamLengthInMeters="6.18" maxJamLengthInVehicles="7" maxJamLengthInMeters="46.33" jamLengthInVehiclesSum="55" jamLengthInMetersSum="371.09" meanHaltingDuration="37.22" maxHaltingDuration="84.00" haltingDurationSum="335.00" meanIntervalHaltingDuration="6.44" maxIntervalHaltingDuration="12.00" intervalHaltingDurationSum="58.00" startedHalts="3.00" meanVehicleNumber="2.23" maxVehicleNumber="7" />
   <interval begin="300.00" end="360.00" id="queue_Lup_0" sampledSeconds="527.37" nVehEntered="4" nVehLeft="2" nVehSeen="11" meanSpeed="0.24" meanTimeLoss="47.24" meanOccupancy="21.08" maxOccupancy="23.84" meanMaxJamLengthInVehicles="8.58" meanMaxJamLengthInMeters="60.10" maxJamLengthInVehicles="9" maxJamLengthInMeters="62.69" jamLengthInVehiclesSum="515" jamLengthInMetersSum="3606.29" meanHaltingDuration="78.33" maxHaltingDuration="109.00" haltingDurationSum="705.00" meanIntervalHaltingDuration="57.44" maxIntervalHaltingDuration="60.00" intervalHaltingDurationSum="517.00" startedHalts="2.00" meanVehicleNumber="8.85" maxVehicleNumber="10" />
   <interval begin="300.00" end="360.00" id="queue_Lup_1" sampledSeconds="503.76" nVehEntered="3" nVehLeft="0" nVehSeen="9" meanSpeed="0.06" meanTimeLoss="55.77" meanOccupancy="20.22" maxOccupancy="21.34" meanMaxJamLengthInVehicles="8.28" meanMaxJamLengthInMeters="58.13" maxJamLengthInVehicles="9" maxJamLengthInMeters="62.69" jamLengthInVehiclesSum="497" jamLengthInMetersSum="3487.78" meanHaltingDuration="73.44" maxHaltingDuration="115.00" haltingDurationSum="661.00" meanIntervalHaltingDuration="55.55" maxIntervalHaltingDuration="60.00" intervalHaltingDurationSum="500.00" startedHalts="3.00" meanVehicleNumber="8.42" maxVehicleNumber="9" />
   <interval begin="300.00" end="360.00" id="queue_Rup_0" sampledSeconds="18.64" nVehEntered="2" nVehLeft="1" nVehSeen="2" meanSpeed="11.54" meanTimeLoss="0.77" meanOccupancy="0.76" maxOccupancy="2.50" meanMaxJamLengthInVehicles="0.00" meanMaxJamLengthInMeters="0.00" maxJamLengthInVehicles="0" maxJamLengthInMeters="0.00" jamLengthInVehiclesSum="0" jamLengthInMetersSum="0.00" meanHaltingDuration="0.00" maxHaltingDuration="0.00" haltingDurationSum="0.00" meanIntervalHaltingDuration="0.00" maxIntervalHaltingDuration="0.00" intervalHaltingDurationSum="0.00" startedHalts="0.00" meanVehicleNumber="0.33" maxVehicleNumber="1" />
   <interval begin="300.00" end="360.00" id="queue_Rup_1" sampledSeconds="696.39" nVehEntered="6" nVehLeft="12" nVehSeen="18" meanSpeed="1.24" meanTimeLoss="34.17" meanOccupancy="27.21" maxOccupancy="33.07" meanMaxJamLengthInVehicles="9.43" meanMaxJamLengthInMeters="66.26" maxJamLengthInVehicles="14" maxJamLengthInMeters="98.65" jamLengthInVehiclesSum="566" jamLengthInMetersSum="3975.84" meanHaltingDuration="93.00" maxHaltingDuration="145.00" haltingDurationSum="1302.00" meanIntervalHaltingDuration="40.57" maxIntervalHaltingDuration="47.00" intervalHaltingDurationSum="568.00" startedHalts="2.00" meanVehicleNumber="11.73" maxVehicleNumber="14" />
   <interval begin="300.00" end="360.00" id="queue_Sbound_0" sampledSeconds="71.16" nVehEntered="17" nVehLeft="17" nVehSeen="19" meanSpeed="15.72" meanTimeLoss="0.19" meanOccupancy="8.87" maxOccupancy="16.67" meanMaxJamLengthInVehicles="0.00" meanMaxJamLengthInMeters="0.00" maxJamLengthInVehicles="0" maxJamLengthInMeters="0.00" jamLengthInVehiclesSum="0" jamLengthInMetersSum="0.00" meanHaltingDuration="0.00" maxHaltingDuration="0.00" haltingDurationSum="0.00" meanIntervalHaltingDuration="0.00" maxIntervalHaltingDuration="0.00" intervalHaltingDurationSum="0.00" startedHalts="0.00" meanVehicleNumber="1.47" maxVehicleNumber="2" />
   <interval begin="300.00" end="360.00" id="queue_Sbound_1" sampledSeconds="46.78" nVehEntered="4" nVehLeft="2" nVehSeen="4" meanSpeed="5.34" meanTimeLoss="7.73" meanOccupancy="4.25" maxOccupancy="10.50" meanMaxJamLengthInVehicles="0.42" meanMaxJamLengthInMeters="1.16" maxJamLengthInVehicles="2" maxJamLengthInMeters="8.88" jamLengthInVehiclesSum="25" jamLengthInMetersSum="69.83" meanHaltingDuration="13.50" maxHaltingDuration="20.00" haltingDurationSum="27.00" meanIntervalHaltingDuration="13.50" maxIntervalHaltingDuration="20.00" intervalHaltingDurationSum="27.00" startedHalts="2.00" meanVehicleNumber="0.83" maxVehicleNumber="2" />
   <interval begin="360.00" end="420.00" id="queue_Lup_0" sampledSeconds="492.14" nVehEntered="11" nVehLeft="13" nVehSeen="20" meanSpeed="4.29" meanTimeLoss="18.27" meanOccupancy="19.51" maxOccupancy="23.84" meanMaxJamLengthInVehicles="4.62" meanMaxJamLengthInMeters="31.80" maxJamLengthInVehicles="9" maxJamLengthInMeters="62.69" jamLengthInVehiclesSum="277" jamLengthInMetersSum="1908.17" meanHaltingDuration="109.11" maxHaltingDuration="135.00" haltingDurationSum="982.00" meanIntervalHaltingDuration="30.78" maxIntervalHaltingDuration="36.00" intervalHaltingDurationSum="277.00" startedHalts="0.00" meanVehicleNumber="8.40" maxVehicleNumber="10" />
   <interval begin="360.00" end="420.00" id="queue_Lup_1" sampledSeconds="522.13" nVehEntered="11" nVehLeft="12" nVehSeen="20" meanSpeed="5.66" meanTimeLoss="17.23" meanOccupancy="20.87" maxOccupancy="22.50" meanMaxJamLengthInVehicles="4.73" meanMaxJamLengthInMeters="32.80" maxJamLengthInVehicles="9" maxJamLengthInMeters="62.69" jamLengthInVehiclesSum="284" jamLengthInMetersSum="1968.02" meanHaltingDuration="105.00" maxHaltingDuration="141.00" haltingDurationSum="945.00" meanIntervalHaltingDuration="31.55" maxIntervalHaltingDuration="36.00" intervalHaltingDurationSum="284.00" startedHalts="0.00" meanVehicleNumber="8.90" maxVehicleNumber="9" />
   <interval begin="360.00" end="420.00" id="queue_Rup_0" sampledSeconds="86.50" nVehEntered="10" nVehLeft="8" nVehSeen="11" meanSpeed="11.80" meanTimeLoss="1.91" meanOccupancy="3.66" maxOccupancy="10.00" meanMaxJamLengthInVehicles="0.20" meanMaxJamLengthInMeters="1.00" maxJamLengthInVehicles="1" maxJamLengthInMeters="5.00" jamLengthInVehiclesSum="12" jamLengthInMetersSum="60.00" meanHaltingDuration="13.00" maxHaltingDuration="13.00" haltingDurationSum="13.00" meanIntervalHaltingDuration="13.00" maxIntervalHaltingDuration="13.00" intervalHaltingDurationSum="13.00" startedHalts="1.00" meanVehicleNumber="1.63" maxVehicleNumber="4" />
   <interval begin="360.00" end="420.00" id="queue_Rup_1" sampledSeconds="251.91" nVehEntered="22" nVehLeft="22" nVehSeen="28" meanSpeed="8.33" meanTimeLoss="3.50" meanOccupancy="10.16" maxOccupancy="17.50" meanMaxJamLengthInVehicles="0.82" meanMaxJamLengthInMeters="5.13" maxJamLengthInVehicles="3" maxJamLengthInMeters="20.10" jamLengthInVehiclesSum="49" jamLengthInMetersSum="307.69" meanHaltingDuration="17.33" maxHaltingDuration="25.00" haltingDurationSum="52.00" meanIntervalHaltingDuration="17.33" maxIntervalHaltingDuration="25.00" intervalHaltingDurationSum="52.00" startedHalts="3.00" meanVehicleNumber="4.55" maxVehicleNumber="7" />
   <interval begin="360.00" end="420.00" id="queue_Sbound_0" sampledSeconds="68.16" nVehEntered="17" nVehLeft="17" nVehSeen="19" meanSpeed="15.92" meanTimeLoss="0.21" meanOccupancy="8.67" maxOccupancy="16.67" meanMaxJamLengthInVehicles="0.00" meanMaxJamLengthInMeters="0.00" maxJamLengthInVehicles="0" maxJamLengthInMeters="0.00" jamLengthInVehiclesSum="0" jamLengthInMetersSum="0.00" meanHaltingDuration="0.00" maxHaltingDuration="0.00" haltingDurationSum="0.00" meanIntervalHaltingDuration="0.00" maxIntervalHaltingDuration="0.00" intervalHaltingDurationSum="0.00" startedHalts="0.00" meanVehicleNumber="1.43" maxVehicleNumber="2" />
   <interval begin="360.00" end="420.00" id="queue_Sbound_1" sampledSeconds="274.03" nVehEntered="5" nVehLeft="0" nVehSeen="7" meanSpeed="0.61" meanTimeLoss="37.77" meanOccupancy="32.13" maxOccupancy="52.17" meanMaxJamLengthInVehicles="4.18" meanMaxJamLengthInMeters="25.18" maxJamLengthInVehicles="7" maxJamLengthInMeters="46.37" jamLengthInVehiclesSum="251" jamLengthInMetersSum="1510.94" meanHaltingDuration="40.43" maxHaltingDuration="80.00" haltingDurationSum="283.00" meanIntervalHaltingDuration="36.57" maxIntervalHaltingDuration="60.00" intervalHaltingDurationSum="256.00" startedHalts="5.00" meanVehicleNumber="4.60" maxVehicleNumber="7" />
   <interval begin="420.00" end="480.00" id="queue_Lup_0" sampledSeconds="215.22" nVehEntered="15" nVehLeft="17" nVehSeen="22" meanSpeed="7.96" meanTimeLoss="5.13" meanOccupancy="8.82" maxOccupancy="17.50" meanMaxJamLengthInVehicles="1.23" meanMaxJamLengthInMeters="8.08" maxJamLengthInVehicles="4" maxJamLengthInMeters="27.50" jamLengthInVehiclesSum="74" jamLengthInMetersSum="485.08" meanHaltingDuration="19.50" maxHaltingDuration="29.00" haltingDurationSum="78.00" meanIntervalHaltingDuration="19.50" maxIntervalHaltingDuration="29.00" intervalHaltingDurationSum="78.00" startedHalts="4.00" meanVehicleNumber="3.82" maxVehicleNumber="7" />
   <interval begin="420.00" end="480.00" id="queue_Lup_1" sampledSeconds="150.01" nVehEntered="6" nVehLeft="10" nVehSeen="14" meanSpeed="8.90" meanTimeLoss="5.18" meanOccupancy="5.99" maxOccupancy="20.00" meanMaxJamLengthInVehicles="0.88" meanMaxJamLengthInMeters="5.63" maxJamLengthInVehicles="4" maxJamLengthInMeters="27.54" jamLengthInVehiclesSum="53" jamLengthInMetersSum="337.60" meanHaltingDuration="14.25" maxHaltingDuration="25.00" haltingDurationSum="57.00" meanIntervalHaltingDuration="14.25" maxIntervalHaltingDuration="25.00" intervalHaltingDurationSum="57.00" startedHalts="4.00" meanVehicleNumber="2.60" maxVehicleNumber="8" />