<?xml version="1.0" encoding="UTF-8"?>

<!-- generated on 2026-05-25T14:28:02.181157+08:00 by Eclipse SUMO GUI 1.26.0
<sumoConfiguration xmlns:xsi="http://www.w3.org/2001/XMLSchema-instance" xsi:noNamespaceSchemaLocation="http://sumo.dlr.de/xsd/sumoConfiguration.xsd">

    <input>
        <net-file value="C:\Users\mmmma\TrafficProject\final\modified_cases\modified_afternoon\optimized_initial8_network.net.xml"/>
        <route-files value="C:\Users\mmmma\TrafficProject\final\modified_cases\modified_afternoon\routes_afternoon.rou.xml"/>
        <additional-files value="C:\Users\mmmma\TrafficProject\final\modified_cases\modified_afternoon\detectors.add.xml"/>
    </input>

    <output>
        <tripinfo-output value="C:\Users\mmmma\TrafficProject\final\modified_cases\modified_afternoon\outputs_afternoon/tripinfo.xml"/>
        <edgedata-output value="C:\Users\mmmma\TrafficProject\final\modified_cases\modified_afternoon\outputs_afternoon/edge_data.xml"/>
    </output>

    <time>
        <begin value="0"/>
        <end value="3600"/>
    </time>

    <gui_only>
        <start value="true"/>
    </gui_only>

</sumoConfiguration>
-->

<tripinfos xmlns:xsi="http://www.w3.org/2001/XMLSchema-instance" xsi:noNamespaceSchemaLocation="http://sumo.dlr.de/xsd/tripinfo_file.xsd">
    <tripinfo id="PM_Sbound_straight.0" depart="0.00" departLane="southbound_lanes_0" departPos="5.10" departSpeed="0.00" departDelay="0.00" arrival="23.00" arrivalLane="Ldown_0" arrivalPos="161.93" arrivalSpeed="16.56" duration="23.00" routeLength="305.87" waitingTime="0.00" waitingCount="0" stopTime="0.00" timeLoss="3.96" rerouteNo="0" devices="tripinfo_PM_Sbound_straight.0 routing_PM_Sbound_straight.0" vType="car" speedFactor="1.01" vaporized=""/>
    <tripinfo id="PM_Sbound_straight.1" depart="6.00" departLane="southbound_lanes_0" departPos="5.10" departSpeed="0.00" departDelay="3.56" arrival="28.00" arrivalLane="Ldown_0" arrivalPos="161.93" arrivalSpeed="16.90" duration="22.00" routeLength="305.87" waitingTime="0.00" waitingCount="0" stopTime="0.00" timeLoss="4.11" rerouteNo="0" devices="tripinfo_PM_Sbound_straight.1 routing_PM_Sbound_straight.1" vType="car" speedFactor="1.05" vaporized=""/>
    <tripinfo id="PM_Lup_straight.0" depart="0.00" departLane="Lup_0" departPos="5.10" departSpeed="0.00" departDelay="0.00" arrival="31.00" arrivalLane="northbound_lanes_0" arrivalPos="122.67" arrivalSpeed="17.34" duration="31.00" routeLength="311.00" waitingTime="2.00" waitingCount="1" stopTime="0.00" timeLoss="13.04" rerouteNo="0" devices="tripinfo_PM_Lup_straight.0 routing_PM_Lup_straight.0" vType="car" speedFactor="1.06" vaporized=""/>
    <tripinfo id="PM_Lup_straight.1" depart="6.00" departLane="Lup_0" departPos="5.10" departSpeed="0.00" departDelay="0.30" arrival="31.00" arrivalLane="northbound_lanes_1" arrivalPos="122.67" arrivalSpeed="15.58" duration="25.00" routeLength="311.00" waitingTime="0.00" waitingCount="0" stopTime="0.00" timeLoss="4.32" rerouteNo="0" devices="tripinfo_PM_Lup_straight.1 routing_PM_Lup_straight.1" vType="car" speedFactor="0.94" vaporized=""/>
    <tripinfo id="PM_Sbound_straight.2" depart="9.00" departLane="southbound_lanes_0" departPos="5.10" departSpeed="0.00" departDelay="4.12" arrival="34.00" arrivalLane="Ldown_0" arrivalPos="161.93" arrivalSpeed="14.01" duration="25.00" routeLength="305.87" waitingTime="0.00" waitingCount="0" stopTime="0.00" timeLoss="3.95" rerouteNo="0" devices="tripinfo_PM_Sbound_straight.2 routing_PM_Sbound_straight.2" vType="car" speedFactor="0.89" vaporized=""/>
    <tripinfo id="PM_Lup_straight.2" depart="12.00" departLane="Lup_0" departPos="5.10" departSpeed="0.00" departDelay="0.61" arrival="34.00" arrivalLane="northbound_lanes_0" arrivalPos="122.67" arrivalSpeed="18.59" duration="22.00" routeLength="311.00" waitingTime="0.00" waitingCount="0" stopTime="0.00" timeLoss="4.95" rerouteNo="0" devices="tripinfo_PM_Lup_straight.2 routing_PM_Lup_straight.2" vType="car" speedFactor="1.12" vaporized=""/>
    <tripinfo id="PM_Sbound_straight.3" depart="12.00" departLane="southbound_lanes_0" departPos="5.10" departSpeed="0.00" departDelay="4.68" arrival="38.00" arrivalLane="Ldown_0" arrivalPos="161.93" arrivalSpeed="13.43" duration="26.00" routeLength="305.87" waitingTime="0.00" waitingCount="0" stopTime="0.00" timeLoss="4.36" rerouteNo="0" devices="tripinfo_PM_Sbound_straight.3 routing_PM_Sbound_straight.3" vType="car" speedFactor="0.86" vaporized=""/>
    <tripinfo id="PM_Sbound_straight.4" depart="15.00" departLane="southbound_lanes_0" departPos="5.10" departSpeed="0.00" departDelay="5.24" arrival="40.00" arrivalLane="Ldown_0" arrivalPos="161.93" arrivalSpeed="16.41" duration="25.00" routeLength="305.87" waitingTime="0.00" waitingCount="0" stopTime="0.00" timeLoss="7.54" rerouteNo="0" devices="tripinfo_PM_Sbound_straight.4 routing_PM_Sbound_straight.4" vType="car" speedFactor="1.09" vaporized=""/>
    <tripinfo id="PM_Sbound_straight.5" depart="20.00" departLane="southbound_lanes_0" departPos="5.10" departSpeed="0.00" departDelay="7.80" arrival="43.00" arrivalLane="Ldown_0" arrivalPos="161.93" arrivalSpeed="16.43" duration="23.00" routeLength="305.87" waitingTime="0.00" waitingCount="0" stopTime="0.00" timeLoss="3.89" rerouteNo="0" devices="tripinfo_PM_Sbound_straight.5 routing_PM_Sbound_straight.5" vType="car" speedFactor="0.99" vaporized=""/>
    <tripinfo id="PM_Lup_straight.3" depart="18.00" departLane="Lup_0" departPos="5.10" departSpeed="0.00" departDelay="0.91" arrival="44.00" arrivalLane="northbound_lanes_0" arrivalPos="122.67" arrivalSpeed="13.36" duration="26.00" routeLength="311.00" waitingTime="0.00" waitingCount="0" stopTime="0.00" timeLoss="4.42" rerouteNo="0" devices="tripinfo_PM_Lup_straight.3 routing_PM_Lup_straight.3" vType="car" speedFactor="0.88" vaporized=""/>
    <tripinfo id="PM_Lup_straight.4" depart="23.00" departLane="Lup_0" departPos="5.10" departSpeed="0.00" departDelay="0.22" arrival="47.00" arrivalLane="northbound_lanes_0" arrivalPos="122.67" arrivalSpeed="15.67" duration="24.00" routeLength="311.00" waitingTime="0.00" waitingCount="0" stopTime="0.00" timeLoss="4.18" rerouteNo="0" devices="tripinfo_PM_Lup_straight.4 routing_PM_Lup_straight.4" vType="car" speedFactor="0.97" vaporized=""/>
    <tripinfo id="PM_Sbound_straight.6" depart="23.00" departLane="southbound_lanes_0" departPos="5.10" departSpeed="0.00" departDelay="8.36" arrival="48.00" arrivalLane="Ldown_0" arrivalPos="161.93" arrivalSpeed="14.16" duration="25.00" routeLength="305.87" waitingTime="0.00" waitingCount="0" stopTime="0.00" timeLoss="4.63" rerouteNo="0" devices="tripinfo_PM_Sbound_straight.6 routing_PM_Sbound_straight.6" vType="car" speedFactor="0.93" vaporized=""/>
    <tripinfo id="PM_Sbound_straight.7" depart="26.00" departLane="southbound_lanes_0" departPos="5.10" departSpeed="0.00" departDelay="8.92" arrival="51.00" arrivalLane="Ldown_0" arrivalPos="161.93" arrivalSpeed="15.32" duration="25.00" routeLength="305.87" waitingTime="0.00" waitingCount="0" stopTime="0.00" timeLoss="4.62" rerouteNo="0" devices="tripinfo_PM_Sbound_straight.7 routing_PM_Sbound_straight.7" vType="car" speedFactor="0.94" vaporized=""/>
    <tripinfo id="PM_Sbound_straight.8" depart="29.00" departLane="southbound_lanes_0" departPos="5.10" departSpeed="0.00" departDelay="9.48" arrival="54.00" arrivalLane="Ldown_0" arrivalPos="161.93" arrivalSpeed="14.53" duration="25.00" routeLength="305.87" waitingTime="0.00" waitingCount="0" stopTime="0.00" timeLoss="4.66" rerouteNo="0" devices="tripinfo_PM_Sbound_straight.8 routing_PM_Sbound_straight.8" vType="car" speedFactor="0.94" vaporized=""/>
    <tripinfo id="PM_Lup_straight.5" depart="29.00" departLane="Lup_0" departPos="5.10" departSpeed="0.00" departDelay="0.52" arrival="55.00" arrivalLane="northbound_lanes_1" arrivalPos="122.67" arrivalSpeed="14.43" duration="26.00" routeLength="311.00" waitingTime="0.00" waitingCount="0" stopTime="0.00" timeLoss="5.15" rerouteNo="0" devices="tripinfo_PM_Lup_straight.5 routing_PM_Lup_straight.5" vType="car" speedFactor="0.92" vaporized=""/>
    <tripinfo id="PM_Lup_straight.6" depart="35.00" departLane="Lup_0" departPos="5.10" departSpeed="0.00" departDelay="0.82" arrival="56.00" arrivalLane="northbound_lanes_0" arrivalPos="122.67" arrivalSpeed="18.00" duration="21.00" routeLength="311.00" waitingTime="0.00" waitingCount="0" stopTime="0.00" timeLoss="4.74" rerouteNo="0" devices="tripinfo_PM_Lup_straight.6 routing_PM_Lup_straight.6" vType="car" speedFactor="1.15" vaporized=""/>
    <tripinfo id="PM_Sbound_straight.9" depart="34.00" departLane="southbound_lanes_0" departPos="5.10" departSpeed="0.00" departDelay="12.04" arrival="57.00" arrivalLane="Ldown_0" arrivalPos="161.93" arrivalSpeed="16.76" duration="23.00" routeLength="305.87" waitingTime="0.00" waitingCount="0" stopTime="0.00" timeLoss="4.59" rerouteNo="0" devices="tripinfo_PM_Sbound_straight.9 routing_PM_Sbound_straight.9" vType="car" speedFactor="1.01" vaporized=""/>
    <tripinfo id="PM_Sbound_straight.10" depart="37.00" departLane="southbound_lanes_0" departPos="5.10" departSpeed="0.00" departDelay="12.60" arrival="63.00" arrivalLane="Ldown_0" arrivalPos="161.93" arrivalSpeed="13.18" duration="26.00" routeLength="305.87" waitingTime="0.00" waitingCount="0" stopTime="0.00" timeLoss="3.64" rerouteNo="0" devices="tripinfo_PM_Sbound_straight.10 routing_PM_Sbound_straight.10" vType="car" speedFactor="0.83" vaporized=""/>
    <tripinfo id="PM_Lup_straight.7" depart="40.00" departLane="Lup_0" departPos="5.10" departSpeed="0.00" departDelay="0.13" arrival="64.00" arrivalLane="northbound_lanes_0" arrivalPos="122.67" arrivalSpeed="16.33" duration="24.00" routeLength="311.00" waitingTime="0.00" waitingCount="0" stopTime="0.00" timeLoss="4.91" rerouteNo="0" devices="tripinfo_PM_Lup_straight.7 routing_PM_Lup_straight.7" vType="car" speedFactor="0.99" vaporized=""/>
    <tripinfo id="PM_Sbound_straight.11" depart="40.00" departLane="southbound_lanes_0" departPos="5.10" departSpeed="0.00" departDelay="13.16" arrival="66.00" arrivalLane="Ldown_0" arrivalPos="161.93" arrivalSpeed="13.86" duration="26.00" routeLength="305.87" waitingTime="0.00" waitingCount="0" stopTime="0.00" timeLoss="4.08" rerouteNo="0" devices="tripinfo_PM_Sbound_straight.11 routing_PM_Sbound_straight.11" vType="car" speedFactor="0.87" vaporized=""/>
    <tripinfo id="PM_Sbound_straight.12" depart="43.00" departLane="southbound_lanes_0" departPos="5.10" departSpeed="0.00" departDelay="13.72" arrival="67.00" arrivalLane="Ldown_0" arrivalPos="161.93" arrivalSpeed="14.84" duration="24.00" routeLength="305.87" waitingTime="0.00" waitingCount="0" stopTime="0.00" timeLoss="4.53" rerouteNo="0" devices="tripinfo_PM_Sbound_straight.12 routing_PM_Sbound_straight.12" vType="car" speedFactor="0.95" vaporized=""/>
    <tripinfo id="PM_Sbound_straight.13" depart="48.00" departLane="southbound_lanes_0" departPos="5.10" departSpeed="0.00" departDelay="16.28" arrival="69.00" arrivalLane="Ldown_0" arrivalPos="161.93" arrivalSpeed="19.06" duration="21.00" routeLength="305.87" waitingTime="0.00" waitingCount="0" stopTime="0.00" timeLoss="4.93" rerouteNo="0" devices="tripinfo_PM_Sbound_straight.13 routing_PM_Sbound_straight.13" vType="car" speedFactor="1.18" vaporized=""/>
    <tripinfo id="PM_Rup_minor.0" depart="3.00" departLane="Rup_0" departPos="5.10" departSpeed="0.00" departDelay="3.00" arrival="73.00" arrivalLane="northbound_lanes_0" arrivalPos="122.67" arrivalSpeed="13.16" duration="70.00" routeLength="637.97" waitingTime="0.00" waitingCount="0" stopTime="0.00" timeLoss="5.84" rerouteNo="0" devices="tripinfo_PM_Rup_minor.0 routing_PM_Rup_minor.0" vType="car" speedFactor="0.83" vaporized=""/>
    <tripinfo id="PM_Lup_turn.0" depart="3.00" departLane="Lup_0" departPos="5.10" departSpeed="0.00" departDelay="3.00" arrival="75.00" arrivalLane="Rdown_0" arrivalPos="493.55" arrivalSpeed="9.41" duration="72.00" routeLength="663.62" waitingTime="0.00" waitingCount="0" stopTime="0.00" timeLoss="12.30" rerouteNo="0" devices="tripinfo_PM_Lup_turn.0 routing_PM_Lup_turn.0" vType="car" speedFactor="0.94" vaporized=""/>
    <tripinfo id="PM_Sbound_straight.14" depart="51.00" departLane="southbound_lanes_0" departPos="5.10" departSpeed="0.00" departDelay="16.84" arrival="75.00" arrivalLane="Ldown_0" arrivalPos="161.93" arrivalSpeed="16.57" duration="24.00" routeLength="305.87" waitingTime="0.00" waitingCount="0" stopTime="0.00" timeLoss="4.98" rerouteNo="0" devices="tripinfo_PM_Sbound_straight.14 routing_PM_Sbound_straight.14" vType="car" speedFactor="1.01" vaporized=""/>
    <tripinfo id="PM_Sbound_straight.15" depart="54.00" departLane="southbound_lanes_0" departPos="5.10" departSpeed="0.00" departDelay="17.40" arrival="76.00" arrivalLane="Ldown_0" arrivalPos="161.93" arrivalSpeed="18.52" duration="22.00" routeLength="305.87" waitingTime="0.00" waitingCount="0" stopTime="0.00" timeLoss="6.10" rerouteNo="0" devices="tripinfo_PM_Sbound_straight.15 routing_PM_Sbound_straight.15" vType="car" speedFactor="1.17" vaporized=""/>
    <tripinfo id="PM_Sbound_straight.16" depart="57.00" departLane="southbound_lanes_0" departPos="5.10" departSpeed="0.00" departDelay="17.96" arrival="80.00" arrivalLane="Ldown_0" arrivalPos="161.93" arrivalSpeed="16.85" duration="23.00" routeLength="305.87" waitingTime="0.00" waitingCount="0" stopTime="0.00" timeLoss="4.63" rerouteNo="0" devices="tripinfo_PM_Sbound_straight.16 routing_PM_Sbound_straight.16" vType="car" speedFactor="1.02" vaporized=""/>
    <tripinfo id="PM_Sbound_straight.17" depart="62.00" departLane="southbound_lanes_0" departPos="5.10" departSpeed="0.00" departDelay="20.52" arrival="87.00" arrivalLane="Ldown_0" arrivalPos="161.93" arrivalSpeed="14.47" duration="25.00" routeLength="305.87" waitingTime="0.00" waitingCount="0" stopTime="0.00" timeLoss="3.85" rerouteNo="0" devices="tripinfo_PM_Sbound_straight.17 routing_PM_Sbound_straight.17" vType="car" speedFactor="0.90" vaporized=""/>
    <tripinfo id="PM_Sbound_straight.18" depart="65.00" departLane="southbound_lanes_0" departPos="5.10" departSpeed="0.00" departDelay="21.08" arrival="88.00" arrivalLane="Ldown_0" arrivalPos="161.93" arrivalSpeed="15.82" duration="23.00" routeLength="305.87" waitingTime="0.00" waitingCount="0" stopTime="0.00" timeLoss="5.03" rerouteNo="0" devices="tripinfo_PM_Sbound_straight.18 routing_PM_Sbound_straight.18" vType="car" speedFactor="1.03" vaporized=""/>
    <tripinfo id="PM_Sbound_straight.19" depart="68.00" departLane="southbound_lanes_0" departPos="5.10" departSpeed="0.00" departDelay="21.64" arrival="91.00" arrivalLane="Ldown_0" arrivalPos="161.93" arrivalSpeed="17.21" duration="23.00" routeLength="305.87" waitingTime="0.00" waitingCount="0" stopTime="0.00" timeLoss="4.56" rerouteNo="0" devices="tripinfo_PM_Sbound_straight.19 routing_PM_Sbound_straight.19" vType="car" speedFactor="1.04" vaporized=""/>
    <tripinfo id="PM_Sbound_straight.20" depart="71.00" departLane="southbound_lanes_0" departPos="5.10" departSpeed="0.00" departDelay="22.20" arrival="94.00" arrivalLane="Ldown_0" arrivalPos="161.93" arrivalSpeed="16.60" duration="23.00" routeLength="305.87" waitingTime="0.00" waitingCount="0" stopTime="0.00" timeLoss="5.02" rerouteNo="0" devices="tripinfo_PM_Sbound_straight.20 routing_PM_Sbound_straight.20" vType="car" speedFactor="1.04" vaporized=""/>
    <tripinfo id="PM_Rup_minor.1" depart="43.00" departLane="Rup_0" departPos="5.10" departSpeed="0.00" departDelay="3.87" arrival="97.00" arrivalLane="northbound_lanes_0" arrivalPos="122.67" arrivalSpeed="17.35" duration="54.00" routeLength="637.97" waitingTime="0.00" waitingCount="0" stopTime="0.00" timeLoss="5.04" rerouteNo="0" devices="tripinfo_PM_Rup_minor.1 routing_PM_Rup_minor.1" vType="car" speedFactor="1.10" vaporized=""/>
    <tripinfo id="PM_Lup_turn.1" depart="26.00" departLane="Lup_0" departPos="5.10" departSpeed="0.00" departDelay="3.22" arrival="98.00" arrivalLane="Rdown_0" arrivalPos="493.55" arrivalSpeed="9.30" duration="72.00" routeLength="663.62" waitingTime="0.00" waitingCount="0" stopTime="0.00" timeLoss="9.07" rerouteNo="0" devices="tripinfo_PM_Lup_turn.1 routing_PM_Lup_turn.1" vType="car" speedFactor="0.89" vaporized=""/>
    <tripinfo id="PM_Sbound_straight.21" depart="76.00" departLane="southbound_lanes_0" departPos="5.10" departSpeed="0.00" departDelay="24.76" arrival="101.00" arrivalLane="Ldown_0" arrivalPos="161.93" arrivalSpeed="14.14" duration="25.00" routeLength="305.87" waitingTime="0.00" waitingCount="0" stopTime="0.00" timeLoss="3.91" rerouteNo="0" devices="tripinfo_PM_Sbound_straight.21 routing_PM_Sbound_straight.21" vType="car" speedFactor="0.88" vaporized=""/>
    <tripinfo id="PM_Sbound_straight.22" depart="79.00" departLane="southbound_lanes_0" departPos="5.10" departSpeed="0.00" departDelay="25.32" arrival="105.00" arrivalLane="Ldown_0" arrivalPos="161.93" arrivalSpeed="13.57" duration="26.00" routeLength="305.87" waitingTime="0.00" waitingCount="0" stopTime="0.00" timeLoss="4.09" rerouteNo="0" devices="tripinfo_PM_Sbound_straight.22 routing_PM_Sbound_straight.22" vType="car" speedFactor="0.85" vaporized=""/>
    <tripinfo id="PM_Sbound_straight.23" depart="82.00" departLane="southbound_lanes_0" departPos="5.10" departSpeed="0.00" departDelay="25.88" arrival="107.00" arrivalLane="Ldown_0" arrivalPos="161.93" arrivalSpeed="17.96" duration="25.00" routeLength="305.87" waitingTime="0.00" waitingCount="0" stopTime="0.00" timeLoss="8.54" rerouteNo="0" devices="tripinfo_PM_Sbound_straight.23 routing_PM_Sbound_straight.23" vType="car" speedFactor="1.17" vaporized=""/>
    <tripinfo id="PM_Sbound_straight.24" depart="85.00" departLane="southbound_lanes_0" departPos="5.10" departSpeed="0.00" departDelay="26.44" arrival="109.00" arrivalLane="Ldown_0" arrivalPos="161.93" arrivalSpeed="15.96" duration="24.00" routeLength="305.87" waitingTime="0.00" waitingCount="0" stopTime="0.00" timeLoss="5.02" rerouteNo="0" devices="tripinfo_PM_Sbound_straight.24 routing_PM_Sbound_straight.24" vType="car" speedFactor="1.02" vaporized=""/>
    <tripinfo id="PM_Sbound_turn.0" depart="3.00" departLane="southbound_lanes_0" departPos="5.10" departSpeed="0.00" departDelay="3.00" arrival="110.00" arrivalLane="Rdown_0" arrivalPos="493.55" arrivalSpeed="11.79" duration="107.00" routeLength="643.45" waitingTime="44.00" waitingCount="1" stopTime="0.00" timeLoss="56.60" rerouteNo="0" devices="tripinfo_PM_Sbound_turn.0 routing_PM_Sbound_turn.0" vType="car" speedFactor="1.08" vaporized=""/>
    <tripinfo id="PM_Sbound_turn.2" depart="32.00" departLane="southbound_lanes_0" departPos="5.10" departSpeed="0.00" departDelay="12.49" arrival="111.00" arrivalLane="Rdown_1" arrivalPos="493.55" arrivalSpeed="12.56" duration="79.00" routeLength="643.45" waitingTime="19.00" waitingCount="1" stopTime="0.00" timeLoss="32.16" rerouteNo="0" devices="tripinfo_PM_Sbound_turn.2 routing_PM_Sbound_turn.2" vType="car" speedFactor="1.16" vaporized=""/>
    <tripinfo id="PM_Sbound_straight.25" depart="90.00" departLane="southbound_lanes_0" departPos="5.10" departSpeed="0.00" departDelay="29.00" arrival="113.00" arrivalLane="Ldown_0" arrivalPos="161.93" arrivalSpeed="16.03" duration="23.00" routeLength="305.87" waitingTime="0.00" waitingCount="0" stopTime="0.00" timeLoss="4.25" rerouteNo="0" devices="tripinfo_PM_Sbound_straight.25 routing_PM_Sbound_straight.25" vType="car" speedFactor="1.00" vaporized=""/>
    <tripinfo id="PM_Sbound_turn.1" depart="18.00" departLane="southbound_lanes_0" departPos="5.10" departSpeed="0.00" departDelay="8.24" arrival="115.00" arrivalLane="Rdown_0" arrivalPos="493.55" arrivalSpeed="10.24" duration="97.00" routeLength="643.45" waitingTime="30.00" waitingCount="1" stopTime="0.00" timeLoss="43.99" rerouteNo="0" devices="tripinfo_PM_Sbound_turn.1 routing_PM_Sbound_turn.1" vType="car" speedFactor="1.03" vaporized=""/>
    <tripinfo id="PM_Sbound_straight.26" depart="93.00" departLane="southbound_lanes_0" departPos="5.10" departSpeed="0.00" departDelay="29.56" arrival="115.00" arrivalLane="Ldown_0" arrivalPos="161.93" arrivalSpeed="18.25" duration="22.00" routeLength="305.87" waitingTime="0.00" waitingCount="0" stopTime="0.00" timeLoss="5.12" rerouteNo="0" devices="tripinfo_PM_Sbound_straight.26 routing_PM_Sbound_straight.26" vType="car" speedFactor="1.14" vaporized=""/>
    <tripinfo id="PM_Sbound_turn.3" depart="46.00" departLane="southbound_lanes_0" departPos="5.10" departSpeed="0.00" departDelay="16.73" arrival="116.00" arrivalLane="Rdown_1" arrivalPos="493.55" arrivalSpeed="12.33" duration="70.00" routeLength="643.45" waitingTime="5.00" waitingCount="1" stopTime="0.00" timeLoss="21.53" rerouteNo="0" devices="tripinfo_PM_Sbound_turn.3 routing_PM_Sbound_turn.3" vType="car" speedFactor="1.13" vaporized=""/>
    <tripinfo id="PM_Sbound_straight.27" depart="96.00" departLane="southbound_lanes_0" departPos="5.10" departSpeed="0.00" departDelay="30.12" arrival="118.00" arrivalLane="Ldown_0" arrivalPos="161.93" arrivalSpeed="16.26" duration="22.00" routeLength="305.87" waitingTime="0.00" waitingCount="0" stopTime="0.00" timeLoss="3.84" rerouteNo="0" devices="tripinfo_PM_Sbound_straight.27 routing_PM_Sbound_straight.27" vType="car" speedFactor="1.02" vaporized=""/>
    <tripinfo id="PM_Sbound_straight.28" depart="99.00" departLane="southbound_lanes_0" departPos="5.10" departSpeed="0.00" departDelay="30.68" arrival="120.00" arrivalLane="Ldown_0" arrivalPos="161.93" arrivalSpeed="18.09" duration="21.00" routeLength="305.87" waitingTime="0.00" waitingCount="0" stopTime="0.00" timeLoss="4.31" rerouteNo="0" devices="tripinfo_PM_Sbound_straight.28 routing_PM_Sbound_straight.28" vType="car" speedFactor="1.12" vaporized=""/>
    <tripinfo id="PM_Sbound_turn.4" depart="60.00" departLane="southbound_lanes_0" departPos="5.10" departSpeed="0.00" departDelay="20.98" arrival="124.00" arrivalLane="Rdown_0" arrivalPos="493.55" arrivalSpeed="10.54" duration="64.00" routeLength="643.45" waitingTime="0.00" waitingCount="0" stopTime="0.00" timeLoss="8.33" rerouteNo="0" devices="tripinfo_PM_Sbound_turn.4 routing_PM_Sbound_turn.4" vType="car" speedFactor="0.97" vaporized=""/>
    <tripinfo id="PM_Sbound_straight.29" depart="104.00" departLane="southbound_lanes_0" departPos="5.10" departSpeed="0.00" departDelay="33.24" arrival="128.00" arrivalLane="Ldown_0" arrivalPos="161.93" arrivalSpeed="14.85" duration="24.00" routeLength="305.87" waitingTime="0.00" waitingCount="0" stopTime="0.00" timeLoss="4.01" rerouteNo="0" devices="tripinfo_PM_Sbound_straight.29 routing_PM_Sbound_straight.29" vType="car" speedFactor="0.94" vaporized=""/>
    <tripinfo id="PM_Sbound_straight.30" depart="107.00" departLane="southbound_lanes_0" departPos="5.10" departSpeed="0.00" departDelay="33.80" arrival="132.00" arrivalLane="Ldown_0" arrivalPos="161.93" arrivalSpeed="13.52" duration="25.00" routeLength="305.87" waitingTime="0.00" waitingCount="0" stopTime="0.00" timeLoss="4.17" rerouteNo="0" devices="tripinfo_PM_Sbound_straight.30 routing_PM_Sbound_straight.30" vType="car" speedFactor="0.88" vaporized=""/>
    <tripinfo id="PM_Sbound_turn.5" depart="74.00" departLane="southbound_lanes_0" departPos="5.10" departSpeed="0.00" departDelay="25.22" arrival="134.00" arrivalLane="Rdown_0" arrivalPos="493.55" arrivalSpeed="11.83" duration="60.00" routeLength="643.45" waitingTime="0.00" waitingCount="0" stopTime="0.00" timeLoss="9.46" rerouteNo="0" devices="tripinfo_PM_Sbound_turn.5 routing_PM_Sbound_turn.5" vType="car" speedFactor="1.09" vaporized=""/>
    <tripinfo id="PM_Sbound_straight.31" depart="110.00" departLane="southbound_lanes_0" departPos="5.10" departSpeed="0.00" departDelay="34.36" arrival="135.00" arrivalLane="Ldown_0" arrivalPos="161.93" arrivalSpeed="14.80" duration="25.00" routeLength="305.87" waitingTime="0.00" waitingCount="0" stopTime="0.00" timeLoss="4.28" rerouteNo="0" devices="tripinfo_PM_Sbound_straight.31 routing_PM_Sbound_straight.31" vType="car" speedFactor="0.91" vaporized=""/>
    <tripinfo id="PM_Sbound_straight.32" depart="113.00" departLane="southbound_lanes_0" departPos="5.10" departSpeed="0.00" departDelay="34.92" arrival="136.00" arrivalLane="Ldown_0" arrivalPos="161.93" arrivalSpeed="17.15" duration="23.00" routeLength="305.87" waitingTime="0.00" waitingCount="0" stopTime="0.00" timeLoss="5.29" rerouteNo="0" devices="tripinfo_PM_Sbound_straight.32 routing_PM_Sbound_straight.32" vType="car" speedFactor="1.04" vaporized=""/>
    <tripinfo id="PM_Sbound_straight.33" depart="118.00" departLane="southbound_lanes_0" departPos="5.10" departSpeed="0.00" departDelay="37.48" arrival="141.00" arrivalLane="Ldown_0" arrivalPos="161.93" arrivalSpeed="16.51" duration="23.00" routeLength="305.87" waitingTime="0.00" waitingCount="0" stopTime="0.00" timeLoss="4.97" rerouteNo="0" devices="tripinfo_PM_Sbound_straight.33 routing_PM_Sbound_straight.33" vType="car" speedFactor="1.06" vaporized=""/>
    <tripinfo id="PM_Rup_minor.2" depart="82.00" departLane="Rup_0" departPos="5.10" departSpeed="0.00" departDelay="3.74" arrival="143.00" arrivalLane="northbound_lanes_0" arrivalPos="122.67" arrivalSpeed="16.17" duration="61.00" routeLength="637.97" waitingTime="0.00" waitingCount="0" stopTime="0.00" timeLoss="5.83" rerouteNo="0" devices="tripinfo_PM_Rup_minor.2 routing_PM_Rup_minor.2" vType="car" speedFactor="0.97" vaporized=""/>
    <tripinfo id="PM_Sbound_turn.6" depart="88.00" departLane="southbound_lanes_0" departPos="5.10" departSpeed="0.00" departDelay="29.46" arrival="145.00" arrivalLane="Rdown_0" arrivalPos="493.55" arrivalSpeed="11.42" duration="57.00" routeLength="643.45" waitingTime="0.00" waitingCount="0" stopTime="0.00" timeLoss="7.75" rerouteNo="0" devices="tripinfo_PM_Sbound_turn.6 routing_PM_Sbound_turn.6" vType="car" speedFactor="1.10" vaporized=""/>
    <tripinfo id="PM_Sbound_straight.34" depart="121.00" departLane="southbound_lanes_0" departPos="5.10" departSpeed="0.00" departDelay="38.04" arrival="145.00" arrivalLane="Ldown_0" arrivalPos="161.93" arrivalSpeed="15.64" duration="24.00" routeLength="305.87" waitingTime="0.00" waitingCount="0" stopTime="0.00" timeLoss="4.51" rerouteNo="0" devices="tripinfo_PM_Sbound_straight.34 routing_PM_Sbound_straight.34" vType="car" speedFactor="0.96" vaporized=""/>
    <tripinfo id="PM_Sbound_straight.35" depart="124.00" departLane="southbound_lanes_0" departPos="5.10" departSpeed="0.00" departDelay="38.60" arrival="147.00" arrivalLane="Ldown_0" arrivalPos="161.93" arrivalSpeed="16.27" duration="23.00" routeLength="305.87" waitingTime="0.00" waitingCount="0" stopTime="0.00" timeLoss="4.52" rerouteNo="0" devices="tripinfo_PM_Sbound_straight.35 routing_PM_Sbound_straight.35" vType="car" speedFactor="1.03" vaporized=""/>
    <tripinfo id="PM_Sbound_straight.36" depart="127.00" departLane="southbound_lanes_0" departPos="5.10" departSpeed="0.00" departDelay="39.16" arrival="151.00" arrivalLane="Ldown_0" arrivalPos="161.93" arrivalSpeed="15.25" duration="24.00" routeLength="305.87" waitingTime="0.00" waitingCount="0" stopTime="0.00" timeLoss="4.40" rerouteNo="0" devices="tripinfo_PM_Sbound_straight.36 routing_PM_Sbound_straight.36" vType="car" speedFactor="0.98" vaporized=""/>
    <tripinfo id="PM_Sbound_straight.37" depart="133.00" departLane="southbound_lanes_0" departPos="5.10" departSpeed="0.00" departDelay="42.72" arrival="156.00" arrivalLane="Ldown_0" arrivalPos="161.93" arrivalSpeed="16.43" duration="23.00" routeLength="305.87" waitingTime="0.00" waitingCount="0" stopTime="0.00" timeLoss="4.82" rerouteNo="0" devices="tripinfo_PM_Sbound_straight.37 routing_PM_Sbound_straight.37" vType="car" speedFactor="1.03" vaporized=""/>
    <tripinfo id="PM_Sbound_straight.38" depart="136.00" departLane="southbound_lanes_0" departPos="5.10" departSpeed="0.00" departDelay="43.28" arrival="161.00" arrivalLane="Ldown_0" arrivalPos="161.93" arrivalSpeed="15.35" duration="25.00" routeLength="305.87" waitingTime="0.00" waitingCount="0" stopTime="0.00" timeLoss="5.12" rerouteNo="0" devices="tripinfo_PM_Sbound_straight.38 routing_PM_Sbound_straight.38" vType="car" speedFactor="0.97" vaporized=""/>
    <tripinfo id="PM_Sbound_straight.39" depart="139.00" departLane="southbound_lanes_0" departPos="5.10" departSpeed="0.00" departDelay="43.84" arrival="162.00" arrivalLane="Ldown_0" arrivalPos="161.93" arrivalSpeed="16.82" duration="23.00" routeLength="305.87" waitingTime="0.00" waitingCount="0" stopTime="0.00" timeLoss="6.71" rerouteNo="0" devices="tripinfo_PM_Sbound_straight.39 routing_PM_Sbound_straight.39" vType="car" speedFactor="1.15" vaporized=""/>
    <tripinfo id="PM_Sbound_turn.7" depart="102.00" departLane="southbound_lanes_0" departPos="5.10" departSpeed="0.00" departDelay="33.71" arrival="163.00" arrivalLane="Rdown_0" arrivalPos="493.55" arrivalSpeed="10.02" duration="61.00" routeLength="643.45" waitingTime="0.00" waitingCount="0" stopTime="0.00" timeLoss="7.22" rerouteNo="0" devices="tripinfo_PM_Sbound_turn.7 routing_PM_Sbound_turn.7" vType="car" speedFactor="1.02" vaporized=""/>
    <tripinfo id="PM_Rup_major.0" depart="0.00" departLane="Rup_0" departPos="5.10" departSpeed="0.00" departDelay="0.00" arrival="165.00" arrivalLane="Ldown_1" arrivalPos="161.93" arrivalSpeed="16.78" duration="165.00" routeLength="677.17" waitingTime="98.00" waitingCount="1" stopTime="0.00" timeLoss="109.40" rerouteNo="0" devices="tripinfo_PM_Rup_major.0 routing_PM_Rup_major.0" vType="car" speedFactor="1.03" vaporized=""/>
    <tripinfo id="PM_Sbound_straight.40" depart="142.00" departLane="southbound_lanes_0" departPos="5.10" departSpeed="0.00" departDelay="44.40" arrival="166.00" arrivalLane="Ldown_0" arrivalPos="161.93" arrivalSpeed="15.62" duration="24.00" routeLength="305.87" waitingTime="1.00" waitingCount="1" stopTime="0.00" timeLoss="5.15" rerouteNo="0" devices="tripinfo_PM_Sbound_straight.40 routing_PM_Sbound_straight.40" vType="car" speedFactor="1.00" vaporized=""/>