<?xml version="1.0" encoding="UTF-8"?>

<!-- generated on 2026-05-25T13:35:05.086643+08:00 by Eclipse SUMO GUI 1.26.0
<sumoConfiguration xmlns:xsi="http://www.w3.org/2001/XMLSchema-instance" xsi:noNamespaceSchemaLocation="http://sumo.dlr.de/xsd/sumoConfiguration.xsd">

    <input>
        <net-file value="C:\Users\mmmma\TrafficProject\final\modified_cases\modified_morning\optimized_initial8_network.net.xml"/>
        <route-files value="C:\Users\mmmma\TrafficProject\final\modified_cases\modified_morning\routes_morning.rou.xml"/>
        <additional-files value="C:\Users\mmmma\TrafficProject\final\modified_cases\modified_morning\detectors.add.xml"/>
    </input>

    <output>
        <tripinfo-output value="C:\Users\mmmma\TrafficProject\final\modified_cases\modified_morning\outputs_morning/tripinfo.xml"/>
        <edgedata-output value="C:\Users\mmmma\TrafficProject\final\modified_cases\modified_morning\outputs_morning/edge_data.xml"/>
    </output>

    <time>
        <begin value="0"/>
        <end value="3600"/>
    </time>

    <gui_only>
        <start value="true"/>
    </gui_only>

</sumoConfiguration>
-->

<detector xmlns:xsi="http://www.w3.org/2001/XMLSchema-instance" xsi:noNamespaceSchemaLocation="http://sumo.dlr.de/xsd/det_e2_file.xsd">
   <interval begin="0.00" end="60.00" id="queue_Lup_0" sampledSeconds="200.20" nVehEntered="16" nVehLeft="12" nVehSeen="16" meanSpeed="6.45" meanTimeLoss="7.40" meanOccupancy="8.34" maxOccupancy="15.00" meanMaxJamLengthInVehicles="1.15" meanMaxJamLengthInMeters="7.48" maxJamLengthInVehicles="4" maxJamLengthInMeters="27.55" jamLengthInVehiclesSum="69" jamLengthInMetersSum="448.56" meanHaltingDuration="12.50" maxHaltingDuration="24.00" haltingDurationSum="75.00" meanIntervalHaltingDuration="12.50" maxIntervalHaltingDuration="24.00" intervalHaltingDurationSum="75.00" startedHalts="6.00" meanVehicleNumber="3.52" maxVehicleNumber="7" />
   <interval begin="0.00" end="60.00" id="queue_Lup_1" sampledSeconds="159.07" nVehEntered="8" nVehLeft="5" nVehSeen="8" meanSpeed="7.76" meanTimeLoss="10.24" meanOccupancy="6.52" maxOccupancy="15.00" meanMaxJamLengthInVehicles="0.78" meanMaxJamLengthInMeters="5.03" maxJamLengthInVehicles="4" maxJamLengthInMeters="27.50" jamLengthInVehiclesSum="47" jamLengthInMetersSum="301.94" meanHaltingDuration="10.40" maxHaltingDuration="17.00" haltingDurationSum="52.00" meanIntervalHaltingDuration="10.40" maxIntervalHaltingDuration="17.00" intervalHaltingDurationSum="52.00" startedHalts="5.00" meanVehicleNumber="2.70" maxVehicleNumber="7" />
   <interval begin="0.00" end="60.00" id="queue_Rup_0" sampledSeconds="60.97" nVehEntered="8" nVehLeft="4" nVehSeen="8" meanSpeed="9.93" meanTimeLoss="1.86" meanOccupancy="2.58" maxOccupancy="15.00" meanMaxJamLengthInVehicles="0.15" meanMaxJamLengthInMeters="0.75" maxJamLengthInVehicles="1" maxJamLengthInMeters="5.00" jamLengthInVehiclesSum="9" jamLengthInMetersSum="45.00" meanHaltingDuration="10.00" maxHaltingDuration="10.00" haltingDurationSum="10.00" meanIntervalHaltingDuration="10.00" maxIntervalHaltingDuration="10.00" intervalHaltingDurationSum="10.00" startedHalts="1.00" meanVehicleNumber="1.12" maxVehicleNumber="6" />
   <interval begin="0.00" end="60.00" id="queue_Rup_1" sampledSeconds="50.92" nVehEntered="11" nVehLeft="5" nVehSeen="11" meanSpeed="13.38" meanTimeLoss="0.37" meanOccupancy="2.16" maxOccupancy="15.00" meanMaxJamLengthInVehicles="0.00" meanMaxJamLengthInMeters="0.00" maxJamLengthInVehicles="0" maxJamLengthInMeters="0.00" jamLengthInVehiclesSum="0" jamLengthInMetersSum="0.00" meanHaltingDuration="0.00" maxHaltingDuration="0.00" haltingDurationSum="0.00" meanIntervalHaltingDuration="0.00" maxIntervalHaltingDuration="0.00" intervalHaltingDurationSum="0.00" startedHalts="0.00" meanVehicleNumber="0.95" maxVehicleNumber="6" />
   <interval begin="0.00" end="60.00" id="queue_Sbound_0" sampledSeconds="28.49" nVehEntered="7" nVehLeft="6" nVehSeen="7" meanSpeed="15.68" meanTimeLoss="0.19" meanOccupancy="3.79" maxOccupancy="8.33" meanMaxJamLengthInVehicles="0.00" meanMaxJamLengthInMeters="0.00" maxJamLengthInVehicles="0" maxJamLengthInMeters="0.00" jamLengthInVehiclesSum="0" jamLengthInMetersSum="0.00" meanHaltingDuration="0.00" maxHaltingDuration="0.00" haltingDurationSum="0.00" meanIntervalHaltingDuration="0.00" maxIntervalHaltingDuration="0.00" intervalHaltingDurationSum="0.00" startedHalts="0.00" meanVehicleNumber="0.57" maxVehicleNumber="1" />
   <interval begin="0.00" end="60.00" id="queue_Sbound_1" sampledSeconds="64.71" nVehEntered="2" nVehLeft="0" nVehSeen="2" meanSpeed="1.85" meanTimeLoss="28.91" meanOccupancy="4.51" maxOccupancy="10.50" meanMaxJamLengthInVehicles="0.87" meanMaxJamLengthInMeters="2.16" maxJamLengthInVehicles="2" maxJamLengthInMeters="8.82" jamLengthInVehiclesSum="52" jamLengthInMetersSum="129.67" meanHaltingDuration="27.00" maxHaltingDuration="43.00" haltingDurationSum="54.00" meanIntervalHaltingDuration="27.00" maxIntervalHaltingDuration="43.00" intervalHaltingDurationSum="54.00" startedHalts="2.00" meanVehicleNumber="1.10" maxVehicleNumber="2" />
   <interval begin="60.00" end="120.00" id="queue_Lup_0" sampledSeconds="297.51" nVehEntered="32" nVehLeft="27" nVehSeen="36" meanSpeed="10.79" meanTimeLoss="2.87" meanOccupancy="12.25" maxOccupancy="22.50" meanMaxJamLengthInVehicles="1.12" meanMaxJamLengthInMeters="7.51" maxJamLengthInVehicles="5" maxJamLengthInMeters="35.01" jamLengthInVehiclesSum="67" jamLengthInMetersSum="450.50" meanHaltingDuration="14.40" maxHaltingDuration="22.00" haltingDurationSum="72.00" meanIntervalHaltingDuration="14.40" maxIntervalHaltingDuration="22.00" intervalHaltingDurationSum="72.00" startedHalts="5.00" meanVehicleNumber="5.37" maxVehicleNumber="10" />
   <interval begin="60.00" end="120.00" id="queue_Lup_1" sampledSeconds="102.21" nVehEntered="7" nVehLeft="5" nVehSeen="10" meanSpeed="5.40" meanTimeLoss="7.00" meanOccupancy="4.14" maxOccupancy="12.50" meanMaxJamLengthInVehicles="0.93" meanMaxJamLengthInMeters="5.88" maxJamLengthInVehicles="4" maxJamLengthInMeters="27.52" jamLengthInVehiclesSum="56" jamLengthInMetersSum="352.57" meanHaltingDuration="15.00" maxHaltingDuration="28.00" haltingDurationSum="60.00" meanIntervalHaltingDuration="15.00" maxIntervalHaltingDuration="28.00" intervalHaltingDurationSum="60.00" startedHalts="4.00" meanVehicleNumber="1.75" maxVehicleNumber="5" />
   <interval begin="60.00" end="120.00" id="queue_Rup_0" sampledSeconds="374.97" nVehEntered="20" nVehLeft="19" nVehSeen="24" meanSpeed="7.30" meanTimeLoss="7.40" meanOccupancy="15.38" maxOccupancy="25.00" meanMaxJamLengthInVehicles="1.98" meanMaxJamLengthInMeters="13.41" maxJamLengthInVehicles="6" maxJamLengthInMeters="43.77" jamLengthInVehiclesSum="119" jamLengthInMetersSum="804.44" meanHaltingDuration="19.29" maxHaltingDuration="39.00" haltingDurationSum="135.00" meanIntervalHaltingDuration="17.86" maxIntervalHaltingDuration="29.00" intervalHaltingDurationSum="125.00" startedHalts="6.00" meanVehicleNumber="6.53" maxVehicleNumber="10" />
   <interval begin="60.00" end="120.00" id="queue_Rup_1" sampledSeconds="368.19" nVehEntered="9" nVehLeft="8" nVehSeen="15" meanSpeed="2.27" meanTimeLoss="20.18" meanOccupancy="15.28" maxOccupancy="20.00" meanMaxJamLengthInVehicles="4.08" meanMaxJamLengthInMeters="28.33" maxJamLengthInVehicles="7" maxJamLengthInMeters="51.08" jamLengthInVehiclesSum="250" jamLengthInMetersSum="1724.84" meanHaltingDuration="14.53" maxHaltingDuration="29.00" haltingDurationSum="247.00" meanIntervalHaltingDuration="14.53" maxIntervalHaltingDuration="29.00" intervalHaltingDurationSum="247.00" startedHalts="20.00" meanVehicleNumber="6.23" maxVehicleNumber="8" />
   <interval begin="60.00" end="120.00" id="queue_Sbound_0" sampledSeconds="29.32" nVehEntered="7" nVehLeft="8" nVehSeen="8" meanSpeed="15.81" meanTimeLoss="0.20" meanOccupancy="3.62" maxOccupancy="8.33" meanMaxJamLengthInVehicles="0.00" meanMaxJamLengthInMeters="0.00" maxJamLengthInVehicles="0" maxJamLengthInMeters="0.00" jamLengthInVehiclesSum="0" jamLengthInMetersSum="0.00" meanHaltingDuration="0.00" maxHaltingDuration="0.00" haltingDurationSum="0.00" meanIntervalHaltingDuration="0.00" maxIntervalHaltingDuration="0.00" intervalHaltingDurationSum="0.00" startedHalts="0.00" meanVehicleNumber="0.65" maxVehicleNumber="1" />
   <interval begin="60.00" end="120.00" id="queue_Sbound_1" sampledSeconds="94.17" nVehEntered="2" nVehLeft="4" nVehSeen="4" meanSpeed="1.49" meanTimeLoss="21.53" meanOccupancy="9.42" maxOccupancy="18.84" meanMaxJamLengthInVehicles="1.30" meanMaxJamLengthInMeters="6.32" maxJamLengthInVehicles="3" maxJamLengthInMeters="16.33" jamLengthInVehiclesSum="78" jamLengthInMetersSum="379.22" meanHaltingDuration="44.33" maxHaltingDuration="75.00" haltingDurationSum="133.00" meanIntervalHaltingDuration="26.33" maxIntervalHaltingDuration="33.00" intervalHaltingDurationSum="79.00" startedHalts="1.00" meanVehicleNumber="1.62" maxVehicleNumber="3" />
   <interval begin="120.00" end="180.00" id="queue_Lup_0" sampledSeconds="569.53" nVehEntered="16" nVehLeft="19" nVehSeen="25" meanSpeed="3.54" meanTimeLoss="17.88" meanOccupancy="22.78" maxOccupancy="28.84" meanMaxJamLengthInVehicles="6.40" meanMaxJamLengthInMeters="44.70" maxJamLengthInVehicles="9" maxJamLengthInMeters="62.69" jamLengthInVehiclesSum="384" jamLengthInMetersSum="2682.09" meanHaltingDuration="51.11" maxHaltingDuration="64.00" haltingDurationSum="460.00" meanIntervalHaltingDuration="43.11" maxIntervalHaltingDuration="48.00" intervalHaltingDurationSum="388.00" startedHalts="4.00" meanVehicleNumber="9.80" maxVehicleNumber="13" />
   <interval begin="120.00" end="180.00" id="queue_Lup_1" sampledSeconds="499.48" nVehEntered="7" nVehLeft="4" nVehSeen="12" meanSpeed="2.66" meanTimeLoss="34.91" meanOccupancy="20.15" maxOccupancy="23.84" meanMaxJamLengthInVehicles="6.07" meanMaxJamLengthInMeters="42.25" maxJamLengthInVehicles="9" maxJamLengthInMeters="62.69" jamLengthInVehiclesSum="364" jamLengthInMetersSum="2534.91" meanHaltingDuration="47.67" maxHaltingDuration="70.00" haltingDurationSum="429.00" meanIntervalHaltingDuration="41.00" maxIntervalHaltingDuration="47.00" intervalHaltingDurationSum="369.00" startedHalts="5.00" meanVehicleNumber="8.42" maxVehicleNumber="10" />
   <interval begin="120.00" end="180.00" id="queue_Rup_0" sampledSeconds="249.09" nVehEntered="18" nVehLeft="16" nVehSeen="23" meanSpeed="9.66" meanTimeLoss="3.06" meanOccupancy="10.18" maxOccupancy="17.50" meanMaxJamLengthInVehicles="0.67" meanMaxJamLengthInMeters="4.34" maxJamLengthInVehicles="4" maxJamLengthInMeters="27.54" jamLengthInVehiclesSum="40" jamLengthInMetersSum="260.28" meanHaltingDuration="11.00" maxHaltingDuration="17.00" haltingDurationSum="44.00" meanIntervalHaltingDuration="11.00" maxIntervalHaltingDuration="17.00" intervalHaltingDurationSum="44.00" startedHalts="4.00" meanVehicleNumber="4.38" maxVehicleNumber="7" />
   <interval begin="120.00" end="180.00" id="queue_Rup_1" sampledSeconds="164.72" nVehEntered="15" nVehLeft="14" nVehSeen="22" meanSpeed="7.50" meanTimeLoss="3.17" meanOccupancy="6.67" maxOccupancy="19.55" meanMaxJamLengthInVehicles="0.62" meanMaxJamLengthInMeters="3.97" maxJamLengthInVehicles="5" maxJamLengthInMeters="35.01" jamLengthInVehiclesSum="37" jamLengthInMetersSum="238.01" meanHaltingDuration="12.33" maxHaltingDuration="30.00" haltingDurationSum="111.00" meanIntervalHaltingDuration="4.55" maxIntervalHaltingDuration="12.00" intervalHaltingDurationSum="41.00" startedHalts="5.00" meanVehicleNumber="2.93" maxVehicleNumber="8" />
   <interval begin="120.00" end="180.00" id="queue_Sbound_0" sampledSeconds="31.70" nVehEntered="8" nVehLeft="7" nVehSeen="8" meanSpeed="15.57" meanTimeLoss="0.24" meanOccupancy="3.98" maxOccupancy="8.33" meanMaxJamLengthInVehicles="0.00" meanMaxJamLengthInMeters="0.00" maxJamLengthInVehicles="0" maxJamLengthInMeters="0.00" jamLengthInVehiclesSum="0" jamLengthInMetersSum="0.00" meanHaltingDuration="0.00" maxHaltingDuration="0.00" haltingDurationSum="0.00" meanIntervalHaltingDuration="0.00" maxIntervalHaltingDuration="0.00" intervalHaltingDurationSum="0.00" startedHalts="0.00" meanVehicleNumber="0.62" maxVehicleNumber="1" />
   <interval begin="120.00" end="180.00" id="queue_Sbound_1" sampledSeconds="53.17" nVehEntered="2" nVehLeft="0" nVehSeen="2" meanSpeed="2.26" meanTimeLoss="22.66" meanOccupancy="3.62" maxOccupancy="10.50" meanMaxJamLengthInVehicles="0.67" meanMaxJamLengthInMeters="1.28" maxJamLengthInVehicles="2" maxJamLengthInMeters="8.87" jamLengthInVehiclesSum="40" jamLengthInMetersSum="76.95" meanHaltingDuration="21.00" maxHaltingDuration="37.00" haltingDurationSum="42.00" meanIntervalHaltingDuration="21.00" maxIntervalHaltingDuration="37.00" intervalHaltingDurationSum="42.00" startedHalts="2.00" meanVehicleNumber="0.90" maxVehicleNumber="2" />
   <interval begin="180.00" end="240.00" id="queue_Lup_0" sampledSeconds="368.40" nVehEntered="34" nVehLeft="31" nVehSeen="40" meanSpeed="9.77" meanTimeLoss="3.87" meanOccupancy="15.15" maxOccupancy="25.00" meanMaxJamLengthInVehicles="1.38" meanMaxJamLengthInMeters="9.29" maxJamLengthInVehicles="5" maxJamLengthInMeters="35.03" jamLengthInVehiclesSum="83" jamLengthInMetersSum="557.65" meanHaltingDuration="17.60" maxHaltingDuration="27.00" haltingDurationSum="88.00" meanIntervalHaltingDuration="17.60" maxIntervalHaltingDuration="27.00" intervalHaltingDurationSum="88.00" startedHalts="5.00" meanVehicleNumber="6.60" maxVehicleNumber="10" />
   <interval begin="180.00" end="240.00" id="queue_Lup_1" sampledSeconds="262.81" nVehEntered="14" nVehLeft="17" nVehSeen="22" meanSpeed="10.26" meanTimeLoss="4.69" meanOccupancy="10.54" maxOccupancy="20.00" meanMaxJamLengthInVehicles="1.03" meanMaxJamLengthInMeters="6.88" maxJamLengthInVehicles="5" maxJamLengthInMeters="35.01" jamLengthInVehiclesSum="62" jamLengthInMetersSum="412.65" meanHaltingDuration="13.40" maxHaltingDuration="22.00" haltingDurationSum="67.00" meanIntervalHaltingDuration="13.40" maxIntervalHaltingDuration="22.00" intervalHaltingDurationSum="67.00" startedHalts="5.00" meanVehicleNumber="4.58" maxVehicleNumber="9" />
   <interval begin="180.00" end="240.00" id="queue_Rup_0" sampledSeconds="502.98" nVehEntered="20" nVehLeft="22" nVehSeen="27" meanSpeed="6.07" meanTimeLoss="10.81" meanOccupancy="20.65" maxOccupancy="27.50" meanMaxJamLengthInVehicles="3.58" meanMaxJamLengthInMeters="25.32" maxJamLengthInVehicles="8" maxJamLengthInMeters="57.51" jamLengthInVehiclesSum="215" jamLengthInMetersSum="1519.17" meanHaltingDuration="26.50" maxHaltingDuration="47.00" haltingDurationSum="265.00" meanIntervalHaltingDuration="22.10" maxIntervalHaltingDuration="33.00" intervalHaltingDurationSum="221.00" startedHalts="6.00" meanVehicleNumber="8.65" maxVehicleNumber="11" />
   <interval begin="180.00" end="240.00" id="queue_Rup_1" sampledSeconds="560.25" nVehEntered="21" nVehLeft="20" nVehSeen="29" meanSpeed="2.79" meanTimeLoss="15.74" meanOccupancy="23.26" maxOccupancy="27.50" meanMaxJamLengthInVehicles="6.45" meanMaxJamLengthInMeters="45.98" maxJamLengthInVehicles="10" maxJamLengthInMeters="72.57" jamLengthInVehiclesSum="396" jamLengthInMetersSum="2812.30" meanHaltingDuration="18.44" maxHaltingDuration="70.00" haltingDurationSum="332.00" meanIntervalHaltingDuration="17.17" maxIntervalHaltingDuration="59.00" intervalHaltingDurationSum="309.00" startedHalts="18.00" meanVehicleNumber="9.70" maxVehicleNumber="12" />
   <interval begin="180.00" end="240.00" id="queue_Sbound_0" sampledSeconds="30.13" nVehEntered="7" nVehLeft="8" nVehSeen="8" meanSpeed="15.97" meanTimeLoss="0.20" meanOccupancy="3.75" maxOccupancy="8.33" meanMaxJamLengthInVehicles="0.00" meanMaxJamLengthInMeters="0.00" maxJamLengthInVehicles="0" maxJamLengthInMeters="0.00" jamLengthInVehiclesSum="0" jamLengthInMetersSum="0.00" meanHaltingDuration="0.00" maxHaltingDuration="0.00" haltingDurationSum="0.00" meanIntervalHaltingDuration="0.00" maxIntervalHaltingDuration="0.00" intervalHaltingDurationSum="0.00" startedHalts="0.00" meanVehicleNumber="0.62" maxVehicleNumber="1" />
   <interval begin="180.00" end="240.00" id="queue_Sbound_1" sampledSeconds="95.81" nVehEntered="2" nVehLeft="3" nVehSeen="4" meanSpeed="1.45" meanTimeLoss="21.96" meanOccupancy="9.36" maxOccupancy="18.84" meanMaxJamLengthInVehicles="1.30" meanMaxJamLengthInMeters="6.12" maxJamLengthInVehicles="3" maxJamLengthInMeters="16.69" jamLengthInVehiclesSum="78" jamLengthInMetersSum="367.29" meanHaltingDuration="30.50" maxHaltingDuration="70.00" haltingDurationSum="122.00" meanIntervalHaltingDuration="20.00" maxIntervalHaltingDuration="34.00" intervalHaltingDurationSum="80.00" startedHalts="2.00" meanVehicleNumber="1.65" maxVehicleNumber="3" />
   <interval begin="240.00" end="300.00" id="queue_Lup_0" sampledSeconds="561.56" nVehEntered="17" nVehLeft="20" nVehSeen="26" meanSpeed="4.04" meanTimeLoss="16.25" meanOccupancy="22.38" maxOccupancy="31.33" meanMaxJamLengthInVehicles="5.65" meanMaxJamLengthInMeters="39.38" maxJamLengthInVehicles="9" maxJamLengthInMeters="62.69" jamLengthInVehiclesSum="339" jamLengthInMetersSum="2362.58" meanHaltingDuration="47.89" maxHaltingDuration="63.00" haltingDurationSum="431.00" meanIntervalHaltingDuration="38.11" maxIntervalHaltingDuration="42.00" intervalHaltingDurationSum="343.00" startedHalts="4.00" meanVehicleNumber="9.68" maxVehicleNumber="13" />
   <interval begin="240.00" end="300.00" id="queue_Lup_1" sampledSeconds="505.89" nVehEntered="13" nVehLeft="10" nVehSeen="18" meanSpeed="4.16" meanTimeLoss="21.35" meanOccupancy="20.44" maxOccupancy="23.84" meanMaxJamLengthInVehicles="5.32" meanMaxJamLengthInMeters="37.12" maxJamLengthInVehicles="9" maxJamLengthInMeters="64.04" jamLengthInVehiclesSum="319" jamLengthInMetersSum="2227.25" meanHaltingDuration="43.33" maxHaltingDuration="59.00" haltingDurationSum="390.00" meanIntervalHaltingDuration="35.89" maxIntervalHaltingDuration="42.00" intervalHaltingDurationSum="323.00" startedHalts="4.00" meanVehicleNumber="8.60" maxVehicleNumber="10" />
   <interval begin="240.00" end="300.00" id="queue_Rup_0" sampledSeconds="249.60" nVehEntered="18" nVehLeft="17" nVehSeen="23" meanSpeed="9.34" meanTimeLoss="3.41" meanOccupancy="10.13" maxOccupancy="20.00" meanMaxJamLengthInVehicles="0.77" meanMaxJamLengthInMeters="5.09" maxJamLengthInVehicles="5" maxJamLengthInMeters="35.12" jamLengthInVehiclesSum="46" jamLengthInMetersSum="305.69" meanHaltingDuration="10.20" maxHaltingDuration="17.00" haltingDurationSum="51.00" meanIntervalHaltingDuration="10.20" maxIntervalHaltingDuration="17.00" intervalHaltingDurationSum="51.00" startedHalts="5.00" meanVehicleNumber="4.37" maxVehicleNumber="8" />
   <interval begin="240.00" end="300.00" id="queue_Rup_1" sampledSeconds="256.31" nVehEntered="17" nVehLeft="18" nVehSeen="26" meanSpeed="7.24" meanTimeLoss="4.75" meanOccupancy="10.41" maxOccupancy="22.50" meanMaxJamLengthInVehicles="1.30" meanMaxJamLengthInMeters="8.77" maxJamLengthInVehicles="5" maxJamLengthInMeters="36.60" jamLengthInVehiclesSum="78" jamLengthInMetersSum="526.22" meanHaltingDuration="9.08" maxHaltingDuration="20.00" haltingDurationSum="109.00" meanIntervalHaltingDuration="7.00" maxIntervalHaltingDuration="20.00" intervalHaltingDurationSum="84.00" startedHalts="6.00" meanVehicleNumber="4.50" maxVehicleNumber="9" />
   <interval begin="240.00" end="300.00" id="queue_Sbound_0" sampledSeconds="30.35" nVehEntered="8" nVehLeft="7" nVehSeen="8" meanSpeed="15.12" meanTimeLoss="0.28" meanOccupancy="3.91" maxOccupancy="8.33" meanMaxJamLengthInVehicles="0.00" meanMaxJamLengthInMeters="0.00" maxJamLengthInVehicles="0" maxJamLengthInMeters="0.00" jamLengthInVehiclesSum="0" jamLengthInMetersSum="0.00" meanHaltingDuration="0.00" maxHaltingDuration="0.00" haltingDurationSum="0.00" meanIntervalHaltingDuration="0.00" maxIntervalHaltingDuration="0.00" intervalHaltingDurationSum="0.00" startedHalts="0.00" meanVehicleNumber="0.63" maxVehicleNumber="1" />
   <interval begin="240.00" end="300.00" id="queue_Sbound_1" sampledSeconds="95.98" nVehEntered="2" nVehLeft="0" nVehSeen="3" meanSpeed="0.82" meanTimeLoss="30.47" meanOccupancy="7.31" maxOccupancy="18.84" meanMaxJamLengthInVehicles="1.47" meanMaxJamLengthInMeters="4.81" maxJamLengthInVehicles="2" maxJamLengthInMeters="8.98" jamLengthInVehiclesSum="88" jamLengthInMetersSum="288.39" meanHaltingDuration="45.50" maxHaltingDuration="62.00" haltingDurationSum="91.00" meanIntervalHaltingDuration="44.50" maxIntervalHaltingDuration="60.00" intervalHaltingDurationSum="89.00" startedHalts="1.00" meanVehicleNumber="1.62" maxVehicleNumber="3" />
   <interval begin="300.00" end="360.00" id="queue_Lup_0" sampledSeconds="360.45" nVehEntered="34" nVehLeft="30" nVehSeen="40" meanSpeed="8.72" meanTimeLoss="4.10" meanOccupancy="14.87" maxOccupancy="25.00" meanMaxJamLengthInVehicles="1.58" meanMaxJamLengthInMeters="10.75" maxJamLengthInVehicles="6" maxJamLengthInMeters="42.52" jamLengthInVehiclesSum="95" jamLengthInMetersSum="645.23" meanHaltingDuration="16.83" maxHaltingDuration="28.00" haltingDurationSum="101.00" meanIntervalHaltingDuration="16.83" maxIntervalHaltingDuration="28.00" intervalHaltingDurationSum="101.00" startedHalts="6.00" meanVehicleNumber="6.40" maxVehicleNumber="11" />
   <interval begin="300.00" end="360.00" id="queue_Lup_1" sampledSeconds="244.93" nVehEntered="13" nVehLeft="15" nVehSeen="21" meanSpeed="9.32" meanTimeLoss="5.04" meanOccupancy="9.83" maxOccupancy="20.00" meanMaxJamLengthInVehicles="1.30" meanMaxJamLengthInMeters="8.54" maxJamLengthInVehicles="5" maxJamLengthInMeters="35.09" jamLengthInVehiclesSum="78" jamLengthInMetersSum="512.70" meanHaltingDuration="16.60" maxHaltingDuration="30.00" haltingDurationSum="83.00" meanIntervalHaltingDuration="16.60" maxIntervalHaltingDuration="30.00" intervalHaltingDurationSum="83.00" startedHalts="5.00" meanVehicleNumber="4.22" maxVehicleNumber="9" />
   <interval begin="300.00" end="360.00" id="queue_Rup_0" sampledSeconds="490.51" nVehEntered="17" nVehLeft="18" nVehSeen="23" meanSpeed="5.88" meanTimeLoss="12.15" meanOccupancy="20.08" maxOccupancy="25.00" meanMaxJamLengthInVehicles="3.42" meanMaxJamLengthInMeters="24.30" maxJamLengthInVehicles="8" maxJamLengthInMeters="57.53" jamLengthInVehiclesSum="205" jamLengthInMetersSum="1458.12" meanHaltingDuration="28.89" maxHaltingDuration="43.00" haltingDurationSum="260.00" meanIntervalHaltingDuration="23.22" maxIntervalHaltingDuration="32.00" intervalHaltingDurationSum="209.00" startedHalts="4.00" meanVehicleNumber="8.42" maxVehicleNumber="11" />
   <interval begin="300.00" end="360.00" id="queue_Rup_1" sampledSeconds="580.33" nVehEntered="19" nVehLeft="19" nVehSeen="27" meanSpeed="2.47" meanTimeLoss="17.86" meanOccupancy="24.08" maxOccupancy="27.50" meanMaxJamLengthInVehicles="7.10" meanMaxJamLengthInMeters="50.87" maxJamLengthInVehicles="10" maxJamLengthInMeters="72.54" jamLengthInVehiclesSum="434" jamLengthInMetersSum="3092.15" meanHaltingDuration="23.25" maxHaltingDuration="78.00" haltingDurationSum="372.00" meanIntervalHaltingDuration="20.19" maxIntervalHaltingDuration="59.00" intervalHaltingDurationSum="323.00" startedHalts="16.00" meanVehicleNumber="9.98" maxVehicleNumber="12" />
   <interval begin="300.00" end="360.00" id="queue_Sbound_0" sampledSeconds="32.57" nVehEntered="7" nVehLeft="8" nVehSeen="8" meanSpeed="15.85" meanTimeLoss="0.26" meanOccupancy="4.13" maxOccupancy="8.33" meanMaxJamLengthInVehicles="0.00" meanMaxJamLengthInMeters="0.00" maxJamLengthInVehicles="0" maxJamLengthInMeters="0.00" jamLengthInVehiclesSum="0" jamLengthInMetersSum="0.00" meanHaltingDuration="0.00" maxHaltingDuration="0.00" haltingDurationSum="0.00" meanIntervalHaltingDuration="0.00" maxIntervalHaltingDuration="0.00" intervalHaltingDurationSum="0.00" startedHalts="0.00" meanVehicleNumber="0.67" maxVehicleNumber="1" />
   <interval begin="300.00" end="360.00" id="queue_Sbound_1" sampledSeconds="108.60" nVehEntered="1" nVehLeft="4" nVehSeen="4" meanSpeed="1.08" meanTimeLoss="25.35" meanOccupancy="11.55" maxOccupancy="25.00" meanMaxJamLengthInVehicles="1.48" meanMaxJamLengthInMeters="7.95" maxJamLengthInVehicles="3" maxJamLengthInMeters="16.42" jamLengthInVehiclesSum="89" jamLengthInMetersSum="476.77" meanHaltingDuration="60.33" maxHaltingDuration="92.00" haltingDurationSum="181.00" meanIntervalHaltingDuration="30.00" maxIntervalHaltingDuration="31.00" intervalHaltingDurationSum="90.00" startedHalts="1.00" meanVehicleNumber="1.85" maxVehicleNumber="4" />
   <interval begin="360.00" end="420.00" id="queue_Lup_0" sampledSeconds="581.38" nVehEntered="17" nVehLeft="21" nVehSeen="27" meanSpeed="3.63" meanTimeLoss="16.74" meanOccupancy="23.10" maxOccupancy="30.00" meanMaxJamLengthInVehicles="6.37" meanMaxJamLengthInMeters="44.44" maxJamLengthInVehicles="9" maxJamLengthInMeters="62.69" jamLengthInVehiclesSum="382" jamLengthInMetersSum="2666.51" meanHaltingDuration="54.00" maxHaltingDuration="68.00" haltingDurationSum="486.00" meanIntervalHaltingDuration="42.78" maxIntervalHaltingDuration="47.00" intervalHaltingDurationSum="385.00" startedHalts="3.00" meanVehicleNumber="10.00" maxVehicleNumber="12" />
   <interval begin="360.00" end="420.00" id="queue_Lup_1" sampledSeconds="540.10" nVehEntered="13" nVehLeft="11" nVehSeen="19" meanSpeed="3.63" meanTimeLoss="22.23" meanOccupancy="21.82" maxOccupancy="26.34" meanMaxJamLengthInVehicles="6.02" meanMaxJamLengthInMeters="41.94" maxJamLengthInVehicles="9" maxJamLengthInMeters="62.69" jamLengthInVehiclesSum="361" jamLengthInMetersSum="2516.18" meanHaltingDuration="49.78" maxHaltingDuration="70.00" haltingDurationSum="448.00" meanIntervalHaltingDuration="40.55" maxIntervalHaltingDuration="45.00" intervalHaltingDurationSum="365.00" startedHalts="4.00" meanVehicleNumber="9.18" maxVehicleNumber="11" />
   <interval begin="360.00" end="420.00" id="queue_Rup_0" sampledSeconds="212.78" nVehEntered="16" nVehLeft="16" nVehSeen="21" meanSpeed="10.40" meanTimeLoss="2.15" meanOccupancy="8.55" maxOccupancy="15.00" meanMaxJamLengthInVehicles="0.35" meanMaxJamLengthInMeters="1.96" maxJamLengthInVehicles="2" maxJamLengthInMeters="12.50" jamLengthInVehiclesSum="21" jamLengthInMetersSum="117.51" meanHaltingDuration="11.50" maxHaltingDuration="17.00" haltingDurationSum="23.00" meanIntervalHaltingDuration="11.50" maxIntervalHaltingDuration="17.00" intervalHaltingDurationSum="23.00" startedHalts="2.00" meanVehicleNumber="3.70" maxVehicleNumber="7" />
   <interval begin="360.00" end="420.00" id="queue_Rup_1" sampledSeconds="226.39" nVehEntered="19" nVehLeft="19" nVehSeen="27" meanSpeed="9.75" meanTimeLoss="2.42" meanOccupancy="9.29" maxOccupancy="20.00" meanMaxJamLengthInVehicles="0.30" meanMaxJamLengthInMeters="2.01" maxJamLengthInVehicles="5" maxJamLengthInMeters="36.63" jamLengthInVehiclesSum="18" jamLengthInMetersSum="120.64" meanHaltingDuration="5.50" maxHaltingDuration="8.00" haltingDurationSum="44.00" meanIntervalHaltingDuration="2.50" maxIntervalHaltingDuration="5.00" intervalHaltingDurationSum="20.00" startedHalts="4.00" meanVehicleNumber="4.08" maxVehicleNumber="8" />
   <interval begin="360.00" end="420.00" id="queue_Sbound_0" sampledSeconds="28.00" nVehEntered="7" nVehLeft="7" nVehSeen="7" meanSpeed="16.25" meanTimeLoss="0.31" meanOccupancy="3.56" maxOccupancy="8.33" meanMaxJamLengthInVehicles="0.00" meanMaxJamLengthInMeters="0.00" maxJamLengthInVehicles="0" maxJamLengthInMeters="0.00" jamLengthInVehiclesSum="0" jamLengthInMetersSum="0.00" meanHaltingDuration="0.00" maxHaltingDuration="0.00" haltingDurationSum="0.00" meanIntervalHaltingDuration="0.00" maxIntervalHaltingDuration="0.00" intervalHaltingDurationSum="0.00" startedHalts="0.00" meanVehicleNumber="0.60" maxVehicleNumber="1" />
   <interval begin="360.00" end="420.00" id="queue_Sbound_1" sampledSeconds="83.70" nVehEntered="2" nVehLeft="0" nVehSeen="2" meanSpeed="1.43" meanTimeLoss="38.10" meanOccupancy="6.23" maxOccupancy="10.50" meanMaxJamLengthInVehicles="1.17" meanMaxJamLengthInMeters="3.48" maxJamLengthInVehicles="2" maxJamLengthInMeters="8.80" jamLengthInVehiclesSum="70" jamLengthInMetersSum="209.00" meanHaltingDuration="36.00" maxHaltingDuration="52.00" haltingDurationSum="72.00" meanIntervalHaltingDuration="36.00" maxIntervalHaltingDuration="52.00" intervalHaltingDurationSum="72.00" startedHalts="2.00" meanVehicleNumber="1.42" maxVehicleNumber="2" />
   <interval begin="420.00" end="480.00" id="queue_Lup_0" sampledSeconds="356.20" nVehEntered="32" nVehLeft="30" nVehSeen="38" meanSpeed="9.78" meanTimeLoss="3.80" meanOccupancy="14.58" maxOccupancy="22.50" meanMaxJamLengthInVehicles="1.08" meanMaxJamLengthInMeters="7.26" maxJamLengthInVehicles="5" maxJamLengthInMeters="35.10" jamLengthInVehiclesSum="65" jamLengthInMetersSum="435.36" meanHaltingDuration="14.00" maxHaltingDuration="22.00" haltingDurationSum="70.00" meanIntervalHaltingDuration="14.00" maxIntervalHaltingDuration="22.00" intervalHaltingDurationSum="70.00" startedHalts="5.00" meanVehicleNumber="6.35" maxVehicleNumber="9" />
   <interval begin="420.00" end="480.00" id="queue_Lup_1" sampledSeconds="276.87" nVehEntered="15" nVehLeft="18" nVehSeen="23" meanSpeed="10.43" meanTimeLoss="4.26" meanOccupancy="11.20" maxOccupancy="21.63" meanMaxJamLengthInVehicles="0.83" meanMaxJamLengthInMeters="5.25" maxJamLengthInVehicles="4" maxJamLengthInMeters="27.51" jamLengthInVehiclesSum="50" jamLengthInMetersSum="315.07" meanHaltingDuration="13.50" maxHaltingDuration="25.00" haltingDurationSum="54.00" meanIntervalHaltingDuration="13.50" maxIntervalHaltingDuration="25.00" intervalHaltingDurationSum="54.00" startedHalts="4.00" meanVehicleNumber="4.83" maxVehicleNumber="9" />