<?xml version="1.0" encoding="UTF-8"?>

<!-- generated on 2026-05-25T13:35:05.084885+08:00 by Eclipse SUMO GUI 1.26.0
<sumoConfiguration xmlns:xsi="http://www.w3.org/2001/XMLSchema-instance" xsi:noNamespaceSchemaLocation="http://sumo.dlr.de/xsd/sumoConfiguration.xsd">

    <input>
        <net-file value="C:\Users\mmmma\TrafficProject\final\modified_cases\modified_morning\optimized_initial8_network.net.xml"/>
        <route-files value="C:\Users\mmmma\TrafficProject\final\modified_cases\modified_morning\routes_morning.rou.xml"/>
        <additional-files value="C:\Users\mmmma\TrafficProject\final\modified_cases\modified_morning\detectors.add.xml"/>
    </input>

    <output>
        <tripinfo-output value="C:\Users\mmmma\TrafficProject\final\modified_cases\modified_morning\outputs_morning/tripinfo.xml"/>
        <edgedata-output value="C:\Users\mmmma\TrafficProject\final\modified_cases\modified_morning\outputs_morning/edge_data.xml"/>
    </output>

    <time>
        <begin value="0"/>
        <end value="3600"/>
    </time>

    <gui_only>
        <start value="true"/>
    </gui_only>

</sumoConfiguration>
-->

<tripinfos xmlns:xsi="http://www.w3.org/2001/XMLSchema-instance" xsi:noNamespaceSchemaLocation="http://sumo.dlr.de/xsd/tripinfo_file.xsd">
    <tripinfo id="SC_Southbound_straight.0" depart="0.00" departLane="southbound_lanes_0" departPos="5.10" departSpeed="0.00" departDelay="0.00" arrival="23.00" arrivalLane="Ldown_0" arrivalPos="161.93" arrivalSpeed="15.72" duration="23.00" routeLength="305.87" waitingTime="0.00" waitingCount="0" stopTime="0.00" timeLoss="3.96" rerouteNo="0" devices="tripinfo_SC_Southbound_straight.0 routing_SC_Southbound_straight.0" vType="car" speedFactor="1.01" vaporized=""/>
    <tripinfo id="SC_Southbound_straight.1" depart="9.00" departLane="southbound_lanes_0" departPos="5.10" departSpeed="0.00" departDelay="0.93" arrival="31.00" arrivalLane="Ldown_0" arrivalPos="161.93" arrivalSpeed="17.99" duration="22.00" routeLength="305.87" waitingTime="0.00" waitingCount="0" stopTime="0.00" timeLoss="4.60" rerouteNo="0" devices="tripinfo_SC_Southbound_straight.1 routing_SC_Southbound_straight.1" vType="car" speedFactor="1.09" vaporized=""/>
    <tripinfo id="SC_Southbound_straight.2" depart="17.00" departLane="southbound_lanes_0" departPos="5.10" departSpeed="0.00" departDelay="0.86" arrival="41.00" arrivalLane="Ldown_0" arrivalPos="161.93" arrivalSpeed="14.53" duration="24.00" routeLength="305.87" waitingTime="0.00" waitingCount="0" stopTime="0.00" timeLoss="4.46" rerouteNo="0" devices="tripinfo_SC_Southbound_straight.2 routing_SC_Southbound_straight.2" vType="car" speedFactor="0.94" vaporized=""/>
    <tripinfo id="SC_Southbound_straight.3" depart="25.00" departLane="southbound_lanes_0" departPos="5.10" departSpeed="0.00" departDelay="0.79" arrival="50.00" arrivalLane="Ldown_0" arrivalPos="161.93" arrivalSpeed="14.20" duration="25.00" routeLength="305.87" waitingTime="0.00" waitingCount="0" stopTime="0.00" timeLoss="3.56" rerouteNo="0" devices="tripinfo_SC_Southbound_straight.3 routing_SC_Southbound_straight.3" vType="car" speedFactor="0.87" vaporized=""/>
    <tripinfo id="SC_Northbound_straight.0" depart="0.00" departLane="Lup_0" departPos="5.10" departSpeed="0.00" departDelay="0.00" arrival="51.00" arrivalLane="northbound_lanes_0" arrivalPos="122.67" arrivalSpeed="17.34" duration="51.00" routeLength="311.00" waitingTime="22.00" waitingCount="1" stopTime="0.00" timeLoss="32.82" rerouteNo="0" devices="tripinfo_SC_Northbound_straight.0 routing_SC_Northbound_straight.0" vType="car" speedFactor="1.06" vaporized=""/>
    <tripinfo id="SC_Northbound_straight.1" depart="6.00" departLane="Lup_0" departPos="5.10" departSpeed="0.00" departDelay="3.31" arrival="51.00" arrivalLane="northbound_lanes_1" arrivalPos="122.67" arrivalSpeed="16.69" duration="45.00" routeLength="311.00" waitingTime="16.00" waitingCount="1" stopTime="0.00" timeLoss="26.95" rerouteNo="0" devices="tripinfo_SC_Northbound_straight.1 routing_SC_Northbound_straight.1" vType="car" speedFactor="1.05" vaporized=""/>
    <tripinfo id="SC_Northbound_straight.2" depart="9.00" departLane="Lup_0" departPos="5.10" departSpeed="0.00" departDelay="3.62" arrival="54.00" arrivalLane="northbound_lanes_1" arrivalPos="122.67" arrivalSpeed="14.76" duration="45.00" routeLength="311.00" waitingTime="14.00" waitingCount="1" stopTime="0.00" timeLoss="24.75" rerouteNo="0" devices="tripinfo_SC_Northbound_straight.2 routing_SC_Northbound_straight.2" vType="car" speedFactor="0.94" vaporized=""/>
    <tripinfo id="SC_Southbound_straight.4" depart="33.00" departLane="southbound_lanes_0" departPos="5.10" departSpeed="0.00" departDelay="0.72" arrival="54.00" arrivalLane="Ldown_0" arrivalPos="161.93" arrivalSpeed="19.07" duration="21.00" routeLength="305.87" waitingTime="0.00" waitingCount="0" stopTime="0.00" timeLoss="4.52" rerouteNo="0" devices="tripinfo_SC_Southbound_straight.4 routing_SC_Southbound_straight.4" vType="car" speedFactor="1.15" vaporized=""/>
    <tripinfo id="SC_Northbound_straight.4" depart="15.00" departLane="Lup_0" departPos="5.10" departSpeed="0.00" departDelay="4.24" arrival="56.00" arrivalLane="northbound_lanes_1" arrivalPos="122.67" arrivalSpeed="16.42" duration="41.00" routeLength="311.00" waitingTime="10.00" waitingCount="1" stopTime="0.00" timeLoss="22.38" rerouteNo="0" devices="tripinfo_SC_Northbound_straight.4 routing_SC_Northbound_straight.4" vType="car" speedFactor="1.05" vaporized=""/>
    <tripinfo id="SC_Northbound_straight.3" depart="12.00" departLane="Lup_0" departPos="5.10" departSpeed="0.00" departDelay="3.93" arrival="57.00" arrivalLane="northbound_lanes_0" arrivalPos="122.67" arrivalSpeed="13.04" duration="45.00" routeLength="311.00" waitingTime="12.00" waitingCount="1" stopTime="0.00" timeLoss="22.38" rerouteNo="0" devices="tripinfo_SC_Northbound_straight.3 routing_SC_Northbound_straight.3" vType="car" speedFactor="0.86" vaporized=""/>
    <tripinfo id="SC_Northbound_straight.5" depart="21.00" departLane="Lup_0" departPos="5.10" departSpeed="0.00" departDelay="7.55" arrival="58.00" arrivalLane="northbound_lanes_1" arrivalPos="122.67" arrivalSpeed="16.14" duration="37.00" routeLength="311.00" waitingTime="5.00" waitingCount="1" stopTime="0.00" timeLoss="17.25" rerouteNo="0" devices="tripinfo_SC_Northbound_straight.5 routing_SC_Northbound_straight.5" vType="car" speedFactor="0.99" vaporized=""/>
    <tripinfo id="SC_Northbound_straight.7" depart="27.00" departLane="Lup_0" departPos="5.10" departSpeed="0.00" departDelay="8.17" arrival="60.00" arrivalLane="northbound_lanes_1" arrivalPos="122.67" arrivalSpeed="15.31" duration="33.00" routeLength="311.00" waitingTime="0.00" waitingCount="0" stopTime="0.00" timeLoss="12.22" rerouteNo="0" devices="tripinfo_SC_Northbound_straight.7 routing_SC_Northbound_straight.7" vType="car" speedFactor="0.94" vaporized=""/>
    <tripinfo id="SC_Northbound_straight.6" depart="24.00" departLane="Lup_0" departPos="5.10" departSpeed="0.00" departDelay="7.86" arrival="61.00" arrivalLane="northbound_lanes_0" arrivalPos="122.67" arrivalSpeed="13.89" duration="37.00" routeLength="311.00" waitingTime="3.00" waitingCount="1" stopTime="0.00" timeLoss="15.14" rerouteNo="0" devices="tripinfo_SC_Northbound_straight.6 routing_SC_Northbound_straight.6" vType="car" speedFactor="0.88" vaporized=""/>
    <tripinfo id="SC_Northbound_straight.8" depart="30.00" departLane="Lup_0" departPos="5.10" departSpeed="0.00" departDelay="8.48" arrival="62.00" arrivalLane="northbound_lanes_0" arrivalPos="122.67" arrivalSpeed="16.64" duration="32.00" routeLength="311.00" waitingTime="0.00" waitingCount="0" stopTime="0.00" timeLoss="13.39" rerouteNo="0" devices="tripinfo_SC_Northbound_straight.8 routing_SC_Northbound_straight.8" vType="car" speedFactor="1.01" vaporized=""/>
    <tripinfo id="SC_Northbound_straight.9" depart="36.00" departLane="Lup_0" departPos="5.10" departSpeed="0.00" departDelay="11.79" arrival="63.00" arrivalLane="northbound_lanes_1" arrivalPos="122.67" arrivalSpeed="13.39" duration="27.00" routeLength="311.00" waitingTime="0.00" waitingCount="0" stopTime="0.00" timeLoss="3.95" rerouteNo="0" devices="tripinfo_SC_Northbound_straight.9 routing_SC_Northbound_straight.9" vType="car" speedFactor="0.83" vaporized=""/>
    <tripinfo id="SC_Northbound_straight.10" depart="39.00" departLane="Lup_0" departPos="5.10" departSpeed="0.00" departDelay="12.10" arrival="65.00" arrivalLane="northbound_lanes_1" arrivalPos="122.67" arrivalSpeed="14.95" duration="26.00" routeLength="311.00" waitingTime="0.00" waitingCount="0" stopTime="0.00" timeLoss="4.81" rerouteNo="0" devices="tripinfo_SC_Northbound_straight.10 routing_SC_Northbound_straight.10" vType="car" speedFactor="0.92" vaporized=""/>
    <tripinfo id="SC_Northbound_straight.11" depart="42.00" departLane="Lup_0" departPos="5.10" departSpeed="0.00" departDelay="12.41" arrival="66.00" arrivalLane="northbound_lanes_1" arrivalPos="122.67" arrivalSpeed="17.00" duration="24.00" routeLength="311.00" waitingTime="0.00" waitingCount="0" stopTime="0.00" timeLoss="7.29" rerouteNo="0" devices="tripinfo_SC_Northbound_straight.11 routing_SC_Northbound_straight.11" vType="car" speedFactor="1.13" vaporized=""/>
    <tripinfo id="SC_Southbound_straight.5" depart="41.00" departLane="southbound_lanes_0" departPos="5.10" departSpeed="0.00" departDelay="0.65" arrival="66.00" arrivalLane="Ldown_0" arrivalPos="161.93" arrivalSpeed="14.61" duration="25.00" routeLength="305.87" waitingTime="0.00" waitingCount="0" stopTime="0.00" timeLoss="4.20" rerouteNo="0" devices="tripinfo_SC_Southbound_straight.5 routing_SC_Southbound_straight.5" vType="car" speedFactor="0.90" vaporized=""/>
    <tripinfo id="SC_Northbound_straight.12" depart="45.00" departLane="Lup_0" departPos="5.10" departSpeed="0.00" departDelay="12.72" arrival="70.00" arrivalLane="northbound_lanes_0" arrivalPos="122.67" arrivalSpeed="14.24" duration="25.00" routeLength="311.00" waitingTime="0.00" waitingCount="0" stopTime="0.00" timeLoss="4.49" rerouteNo="0" devices="tripinfo_SC_Northbound_straight.12 routing_SC_Northbound_straight.12" vType="car" speedFactor="0.93" vaporized=""/>
    <tripinfo id="SC_Southbound_straight.6" depart="49.00" departLane="southbound_lanes_0" departPos="5.10" departSpeed="0.00" departDelay="0.57" arrival="72.00" arrivalLane="Ldown_0" arrivalPos="161.93" arrivalSpeed="16.22" duration="23.00" routeLength="305.87" waitingTime="0.00" waitingCount="0" stopTime="0.00" timeLoss="3.85" rerouteNo="0" devices="tripinfo_SC_Southbound_straight.6 routing_SC_Southbound_straight.6" vType="car" speedFactor="1.00" vaporized=""/>
    <tripinfo id="SC_Northbound_straight.13" depart="51.00" departLane="Lup_0" departPos="5.10" departSpeed="0.00" departDelay="16.03" arrival="75.00" arrivalLane="northbound_lanes_0" arrivalPos="122.67" arrivalSpeed="15.85" duration="24.00" routeLength="311.00" waitingTime="0.00" waitingCount="0" stopTime="0.00" timeLoss="4.62" rerouteNo="0" devices="tripinfo_SC_Northbound_straight.13 routing_SC_Northbound_straight.13" vType="car" speedFactor="0.99" vaporized=""/>
    <tripinfo id="SC_Northbound_straight.14" depart="54.00" departLane="Lup_0" departPos="5.10" departSpeed="0.00" departDelay="16.34" arrival="76.00" arrivalLane="northbound_lanes_0" arrivalPos="122.67" arrivalSpeed="18.61" duration="22.00" routeLength="311.00" waitingTime="0.00" waitingCount="0" stopTime="0.00" timeLoss="6.02" rerouteNo="0" devices="tripinfo_SC_Northbound_straight.14 routing_SC_Northbound_straight.14" vType="car" speedFactor="1.18" vaporized=""/>
    <tripinfo id="SC_Northbound_straight.15" depart="57.00" departLane="Lup_0" departPos="5.10" departSpeed="0.00" departDelay="16.65" arrival="79.00" arrivalLane="northbound_lanes_0" arrivalPos="122.67" arrivalSpeed="17.30" duration="22.00" routeLength="311.00" waitingTime="0.00" waitingCount="0" stopTime="0.00" timeLoss="4.52" rerouteNo="0" devices="tripinfo_SC_Northbound_straight.15 routing_SC_Northbound_straight.15" vType="car" speedFactor="1.10" vaporized=""/>
    <tripinfo id="SC_Southbound_straight.7" depart="57.00" departLane="southbound_lanes_0" departPos="5.10" departSpeed="0.00" departDelay="0.50" arrival="80.00" arrivalLane="Ldown_0" arrivalPos="161.93" arrivalSpeed="16.06" duration="23.00" routeLength="305.87" waitingTime="0.00" waitingCount="0" stopTime="0.00" timeLoss="4.39" rerouteNo="0" devices="tripinfo_SC_Southbound_straight.7 routing_SC_Southbound_straight.7" vType="car" speedFactor="1.00" vaporized=""/>
    <tripinfo id="SC_Northbound_straight.16" depart="63.00" departLane="Lup_0" departPos="5.10" departSpeed="0.00" departDelay="19.96" arrival="87.00" arrivalLane="northbound_lanes_1" arrivalPos="122.67" arrivalSpeed="17.67" duration="24.00" routeLength="311.00" waitingTime="0.00" waitingCount="0" stopTime="0.00" timeLoss="6.15" rerouteNo="0" devices="tripinfo_SC_Northbound_straight.16 routing_SC_Northbound_straight.16" vType="car" speedFactor="1.09" vaporized=""/>
    <tripinfo id="SC_Southbound_straight.8" depart="65.00" departLane="southbound_lanes_0" departPos="5.10" departSpeed="0.00" departDelay="0.43" arrival="87.00" arrivalLane="Ldown_0" arrivalPos="161.93" arrivalSpeed="17.54" duration="22.00" routeLength="305.87" waitingTime="0.00" waitingCount="0" stopTime="0.00" timeLoss="4.60" rerouteNo="0" devices="tripinfo_SC_Southbound_straight.8 routing_SC_Southbound_straight.8" vType="car" speedFactor="1.08" vaporized=""/>
    <tripinfo id="SC_Northbound_straight.17" depart="66.00" departLane="Lup_0" departPos="5.10" departSpeed="0.00" departDelay="20.27" arrival="89.00" arrivalLane="northbound_lanes_0" arrivalPos="122.67" arrivalSpeed="16.98" duration="23.00" routeLength="311.00" waitingTime="0.00" waitingCount="0" stopTime="0.00" timeLoss="4.49" rerouteNo="0" devices="tripinfo_SC_Northbound_straight.17 routing_SC_Northbound_straight.17" vType="car" speedFactor="1.04" vaporized=""/>
    <tripinfo id="SC_Northbound_turn.1" depart="18.00" departLane="Lup_0" departPos="5.10" departSpeed="0.00" departDelay="7.25" arrival="91.00" arrivalLane="Rdown_0" arrivalPos="493.55" arrivalSpeed="11.60" duration="73.00" routeLength="663.62" waitingTime="8.00" waitingCount="1" stopTime="0.00" timeLoss="23.21" rerouteNo="0" devices="tripinfo_SC_Northbound_turn.1 routing_SC_Northbound_turn.1" vType="car" speedFactor="1.12" vaporized=""/>
    <tripinfo id="SC_Northbound_straight.18" depart="69.00" departLane="Lup_0" departPos="5.10" departSpeed="0.00" departDelay="20.58" arrival="91.00" arrivalLane="northbound_lanes_0" arrivalPos="122.67" arrivalSpeed="17.95" duration="22.00" routeLength="311.00" waitingTime="0.00" waitingCount="0" stopTime="0.00" timeLoss="4.51" rerouteNo="0" devices="tripinfo_SC_Northbound_straight.18 routing_SC_Northbound_straight.18" vType="car" speedFactor="1.09" vaporized=""/>
    <tripinfo id="SC_Northbound_turn.0" depart="3.00" departLane="Lup_0" departPos="5.10" departSpeed="0.00" departDelay="3.00" arrival="95.00" arrivalLane="Rdown_0" arrivalPos="493.55" arrivalSpeed="10.26" duration="92.00" routeLength="663.62" waitingTime="19.00" waitingCount="1" stopTime="0.00" timeLoss="32.12" rerouteNo="0" devices="tripinfo_SC_Northbound_turn.0 routing_SC_Northbound_turn.0" vType="car" speedFactor="0.94" vaporized=""/>
    <tripinfo id="SC_Northbound_straight.19" depart="72.00" departLane="Lup_0" departPos="5.10" departSpeed="0.00" departDelay="20.89" arrival="97.00" arrivalLane="northbound_lanes_0" arrivalPos="122.67" arrivalSpeed="13.33" duration="25.00" routeLength="311.00" waitingTime="0.00" waitingCount="0" stopTime="0.00" timeLoss="3.57" rerouteNo="0" devices="tripinfo_SC_Northbound_straight.19 routing_SC_Northbound_straight.19" vType="car" speedFactor="0.88" vaporized=""/>
    <tripinfo id="SC_Southbound_straight.9" depart="73.00" departLane="southbound_lanes_0" departPos="5.10" departSpeed="0.00" departDelay="0.36" arrival="97.00" arrivalLane="Ldown_0" arrivalPos="161.93" arrivalSpeed="14.03" duration="24.00" routeLength="305.87" waitingTime="0.00" waitingCount="0" stopTime="0.00" timeLoss="3.91" rerouteNo="0" devices="tripinfo_SC_Southbound_straight.9 routing_SC_Southbound_straight.9" vType="car" speedFactor="0.91" vaporized=""/>
    <tripinfo id="SC_Rup_major.0" depart="0.00" departLane="Rup_0" departPos="5.10" departSpeed="0.00" departDelay="0.00" arrival="100.00" arrivalLane="northbound_lanes_0" arrivalPos="122.67" arrivalSpeed="16.71" duration="100.00" routeLength="637.97" waitingTime="38.00" waitingCount="1" stopTime="0.00" timeLoss="48.25" rerouteNo="0" devices="tripinfo_SC_Rup_major.0 routing_SC_Rup_major.0" vType="car" speedFactor="1.03" vaporized=""/>
    <tripinfo id="SC_Rup_major.2" depart="10.00" departLane="Rup_0" departPos="5.10" departSpeed="0.00" departDelay="0.76" arrival="100.00" arrivalLane="northbound_lanes_1" arrivalPos="122.67" arrivalSpeed="15.90" duration="90.00" routeLength="641.26" waitingTime="24.00" waitingCount="1" stopTime="0.00" timeLoss="37.24" rerouteNo="0" devices="tripinfo_SC_Rup_major.2 routing_SC_Rup_major.2" vType="car" speedFactor="1.03" vaporized=""/>
    <tripinfo id="SC_Rup_major.1" depart="6.00" departLane="Rup_0" departPos="5.10" departSpeed="0.00" departDelay="1.38" arrival="104.00" arrivalLane="northbound_lanes_0" arrivalPos="122.67" arrivalSpeed="13.55" duration="98.00" routeLength="637.97" waitingTime="24.00" waitingCount="1" stopTime="0.00" timeLoss="37.43" rerouteNo="0" devices="tripinfo_SC_Rup_major.1 routing_SC_Rup_major.1" vType="car" speedFactor="0.89" vaporized=""/>
    <tripinfo id="SC_Northbound_turn.2" depart="33.00" departLane="Lup_0" departPos="5.10" departSpeed="0.00" departDelay="11.51" arrival="105.00" arrivalLane="Rdown_0" arrivalPos="493.55" arrivalSpeed="10.12" duration="72.00" routeLength="663.62" waitingTime="0.00" waitingCount="0" stopTime="0.00" timeLoss="14.35" rerouteNo="0" devices="tripinfo_SC_Northbound_turn.2 routing_SC_Northbound_turn.2" vType="car" speedFactor="0.97" vaporized=""/>
    <tripinfo id="SC_Northbound_turn.3" depart="48.00" departLane="Lup_0" departPos="5.10" departSpeed="0.00" departDelay="15.76" arrival="105.00" arrivalLane="Rdown_1" arrivalPos="493.55" arrivalSpeed="13.06" duration="57.00" routeLength="663.62" waitingTime="0.00" waitingCount="0" stopTime="0.00" timeLoss="9.22" rerouteNo="0" devices="tripinfo_SC_Northbound_turn.3 routing_SC_Northbound_turn.3" vType="car" speedFactor="1.18" vaporized=""/>
    <tripinfo id="SC_Southbound_straight.10" depart="81.00" departLane="southbound_lanes_0" departPos="5.10" departSpeed="0.00" departDelay="0.29" arrival="105.00" arrivalLane="Ldown_0" arrivalPos="161.93" arrivalSpeed="16.34" duration="24.00" routeLength="305.87" waitingTime="0.00" waitingCount="0" stopTime="0.00" timeLoss="4.79" rerouteNo="0" devices="tripinfo_SC_Southbound_straight.10 routing_SC_Southbound_straight.10" vType="car" speedFactor="0.98" vaporized=""/>
    <tripinfo id="SC_Rup_major.3" depart="14.00" departLane="Rup_0" departPos="5.10" departSpeed="0.00" departDelay="0.14" arrival="106.00" arrivalLane="northbound_lanes_0" arrivalPos="122.67" arrivalSpeed="14.78" duration="92.00" routeLength="637.97" waitingTime="23.00" waitingCount="1" stopTime="0.00" timeLoss="33.67" rerouteNo="0" devices="tripinfo_SC_Rup_major.3 routing_SC_Rup_major.3" vType="car" speedFactor="0.93" vaporized=""/>
    <tripinfo id="SC_Rup_major.5" depart="25.00" departLane="Rup_0" departPos="5.10" departSpeed="0.00" departDelay="1.90" arrival="108.00" arrivalLane="northbound_lanes_0" arrivalPos="122.67" arrivalSpeed="14.29" duration="83.00" routeLength="637.97" waitingTime="11.00" waitingCount="1" stopTime="0.00" timeLoss="22.38" rerouteNo="0" devices="tripinfo_SC_Rup_major.5 routing_SC_Rup_major.5" vType="car" speedFactor="0.89" vaporized=""/>
    <tripinfo id="SC_Rup_major.7" depart="33.00" departLane="Rup_0" departPos="5.10" departSpeed="0.00" departDelay="0.65" arrival="109.00" arrivalLane="northbound_lanes_0" arrivalPos="122.67" arrivalSpeed="15.88" duration="76.00" routeLength="637.97" waitingTime="10.00" waitingCount="1" stopTime="0.00" timeLoss="30.32" rerouteNo="0" devices="tripinfo_SC_Rup_major.7 routing_SC_Rup_major.7" vType="car" speedFactor="1.17" vaporized=""/>
    <tripinfo id="SC_Rup_major.8" depart="37.00" departLane="Rup_0" departPos="5.10" departSpeed="0.00" departDelay="0.03" arrival="111.00" arrivalLane="northbound_lanes_0" arrivalPos="122.67" arrivalSpeed="16.65" duration="74.00" routeLength="637.97" waitingTime="8.00" waitingCount="1" stopTime="0.00" timeLoss="21.05" rerouteNo="0" devices="tripinfo_SC_Rup_major.8 routing_SC_Rup_major.8" vType="car" speedFactor="1.02" vaporized=""/>
    <tripinfo id="SC_Southbound_straight.11" depart="89.00" departLane="southbound_lanes_0" departPos="5.10" departSpeed="0.00" departDelay="0.22" arrival="111.00" arrivalLane="Ldown_0" arrivalPos="161.93" arrivalSpeed="16.30" duration="22.00" routeLength="305.87" waitingTime="0.00" waitingCount="0" stopTime="0.00" timeLoss="3.70" rerouteNo="0" devices="tripinfo_SC_Southbound_straight.11 routing_SC_Southbound_straight.11" vType="car" speedFactor="1.02" vaporized=""/>
    <tripinfo id="SC_Rup_major.9" depart="43.00" departLane="Rup_0" departPos="5.10" departSpeed="0.00" departDelay="1.41" arrival="113.00" arrivalLane="northbound_lanes_0" arrivalPos="122.67" arrivalSpeed="16.56" duration="70.00" routeLength="637.97" waitingTime="4.00" waitingCount="1" stopTime="0.00" timeLoss="17.38" rerouteNo="0" devices="tripinfo_SC_Rup_major.9 routing_SC_Rup_major.9" vType="car" speedFactor="1.03" vaporized=""/>
    <tripinfo id="SC_Rup_major.11" depart="51.00" departLane="Rup_0" departPos="5.10" departSpeed="0.00" departDelay="0.17" arrival="117.00" arrivalLane="northbound_lanes_0" arrivalPos="122.67" arrivalSpeed="14.40" duration="66.00" routeLength="637.97" waitingTime="0.00" waitingCount="0" stopTime="0.00" timeLoss="6.10" rerouteNo="0" devices="tripinfo_SC_Rup_major.11 routing_SC_Rup_major.11" vType="car" speedFactor="0.90" vaporized=""/>
    <tripinfo id="SC_Rup_major.6" depart="28.00" departLane="Rup_0" departPos="5.10" departSpeed="0.00" departDelay="0.27" arrival="119.00" arrivalLane="northbound_lanes_0" arrivalPos="122.67" arrivalSpeed="14.91" duration="91.00" routeLength="637.97" waitingTime="18.00" waitingCount="2" stopTime="0.00" timeLoss="34.61" rerouteNo="0" devices="tripinfo_SC_Rup_major.6 routing_SC_Rup_major.6" vType="car" speedFactor="0.95" vaporized=""/>
    <tripinfo id="SC_Southbound_straight.12" depart="97.00" departLane="southbound_lanes_0" departPos="5.10" departSpeed="0.00" departDelay="0.15" arrival="120.00" arrivalLane="Ldown_0" arrivalPos="161.93" arrivalSpeed="15.74" duration="23.00" routeLength="305.87" waitingTime="0.00" waitingCount="0" stopTime="0.00" timeLoss="4.20" rerouteNo="0" devices="tripinfo_SC_Southbound_straight.12 routing_SC_Southbound_straight.12" vType="car" speedFactor="1.02" vaporized=""/>
    <tripinfo id="SC_Rup_major.12" depart="56.00" departLane="Rup_0" departPos="5.10" departSpeed="0.00" departDelay="0.55" arrival="121.00" arrivalLane="northbound_lanes_0" arrivalPos="122.67" arrivalSpeed="18.95" duration="65.00" routeLength="637.97" waitingTime="3.00" waitingCount="1" stopTime="0.00" timeLoss="18.74" rerouteNo="0" devices="tripinfo_SC_Rup_major.12 routing_SC_Rup_major.12" vType="car" speedFactor="1.17" vaporized=""/>
    <tripinfo id="SC_Rup_major.14" depart="65.00" departLane="Rup_0" departPos="5.10" departSpeed="0.00" departDelay="0.31" arrival="123.00" arrivalLane="northbound_lanes_0" arrivalPos="122.67" arrivalSpeed="16.32" duration="58.00" routeLength="637.97" waitingTime="0.00" waitingCount="0" stopTime="0.00" timeLoss="5.50" rerouteNo="0" devices="tripinfo_SC_Rup_major.14 routing_SC_Rup_major.14" vType="car" speedFactor="1.02" vaporized=""/>
    <tripinfo id="SC_Rup_major.13" depart="62.00" departLane="Rup_0" departPos="5.10" departSpeed="0.00" departDelay="1.93" arrival="127.00" arrivalLane="northbound_lanes_0" arrivalPos="122.67" arrivalSpeed="14.80" duration="65.00" routeLength="637.97" waitingTime="0.00" waitingCount="0" stopTime="0.00" timeLoss="5.68" rerouteNo="0" devices="tripinfo_SC_Rup_major.13 routing_SC_Rup_major.13" vType="car" speedFactor="0.90" vaporized=""/>
    <tripinfo id="SC_Northbound_turn.4" depart="60.00" departLane="Lup_0" departPos="5.10" departSpeed="0.00" departDelay="17.02" arrival="128.00" arrivalLane="Rdown_0" arrivalPos="493.55" arrivalSpeed="9.84" duration="68.00" routeLength="663.62" waitingTime="0.00" waitingCount="0" stopTime="0.00" timeLoss="9.66" rerouteNo="0" devices="tripinfo_SC_Northbound_turn.4 routing_SC_Northbound_turn.4" vType="car" speedFactor="0.96" vaporized=""/>
    <tripinfo id="SC_Southbound_straight.13" depart="105.00" departLane="southbound_lanes_0" departPos="5.10" departSpeed="0.00" departDelay="0.08" arrival="128.00" arrivalLane="Ldown_0" arrivalPos="161.93" arrivalSpeed="15.65" duration="23.00" routeLength="305.87" waitingTime="0.00" waitingCount="0" stopTime="0.00" timeLoss="4.39" rerouteNo="0" devices="tripinfo_SC_Southbound_straight.13 routing_SC_Southbound_straight.13" vType="car" speedFactor="1.01" vaporized=""/>
    <tripinfo id="SC_Rup_major.10" depart="47.00" departLane="Rup_0" departPos="5.10" departSpeed="0.00" departDelay="0.79" arrival="129.00" arrivalLane="northbound_lanes_0" arrivalPos="122.67" arrivalSpeed="16.78" duration="82.00" routeLength="637.97" waitingTime="10.00" waitingCount="3" stopTime="0.00" timeLoss="30.60" rerouteNo="0" devices="tripinfo_SC_Rup_major.10 routing_SC_Rup_major.10" vType="car" speedFactor="1.04" vaporized=""/>
    <tripinfo id="SC_Rup_major.4" depart="19.00" departLane="Rup_0" departPos="5.10" departSpeed="0.00" departDelay="0.52" arrival="133.00" arrivalLane="northbound_lanes_0" arrivalPos="122.67" arrivalSpeed="18.55" duration="114.00" routeLength="637.97" waitingTime="50.00" waitingCount="2" stopTime="0.00" timeLoss="67.25" rerouteNo="0" devices="tripinfo_SC_Rup_major.4 routing_SC_Rup_major.4" vType="car" speedFactor="1.16" vaporized=""/>
    <tripinfo id="SC_Rup_minor.0" depart="3.00" departLane="Rup_0" departPos="5.10" departSpeed="0.00" departDelay="3.00" arrival="138.00" arrivalLane="Ldown_1" arrivalPos="161.93" arrivalSpeed="12.99" duration="135.00" routeLength="677.17" waitingTime="53.00" waitingCount="2" stopTime="0.00" timeLoss="66.42" rerouteNo="0" devices="tripinfo_SC_Rup_minor.0 routing_SC_Rup_minor.0" vType="car" speedFactor="0.83" vaporized=""/>
    <tripinfo id="SC_Rup_major.15" depart="70.00" departLane="Rup_0" departPos="5.10" departSpeed="0.00" departDelay="0.69" arrival="138.00" arrivalLane="northbound_lanes_0" arrivalPos="122.67" arrivalSpeed="14.06" duration="68.00" routeLength="637.97" waitingTime="0.00" waitingCount="0" stopTime="0.00" timeLoss="7.03" rerouteNo="0" devices="tripinfo_SC_Rup_major.15 routing_SC_Rup_major.15" vType="car" speedFactor="0.88" vaporized=""/>
    <tripinfo id="SC_Southbound_straight.14" depart="113.00" departLane="southbound_lanes_0" departPos="5.10" departSpeed="0.00" departDelay="0.01" arrival="138.00" arrivalLane="Ldown_0" arrivalPos="161.93" arrivalSpeed="13.75" duration="25.00" routeLength="305.87" waitingTime="0.00" waitingCount="0" stopTime="0.00" timeLoss="4.30" rerouteNo="0" devices="tripinfo_SC_Southbound_straight.14 routing_SC_Southbound_straight.14" vType="car" speedFactor="0.89" vaporized=""/>
    <tripinfo id="SC_Rup_minor.1" depart="22.00" departLane="Rup_0" departPos="5.10" departSpeed="0.00" departDelay="3.54" arrival="139.00" arrivalLane="Ldown_1" arrivalPos="161.93" arrivalSpeed="15.55" duration="117.00" routeLength="677.17" waitingTime="44.00" waitingCount="2" stopTime="0.00" timeLoss="61.50" rerouteNo="0" devices="tripinfo_SC_Rup_minor.1 routing_SC_Rup_minor.1" vType="car" speedFactor="1.02" vaporized=""/>
    <tripinfo id="SC_Rup_major.17" depart="80.00" departLane="Rup_0" departPos="5.10" departSpeed="0.00" departDelay="1.44" arrival="139.00" arrivalLane="northbound_lanes_0" arrivalPos="122.67" arrivalSpeed="16.72" duration="59.00" routeLength="637.97" waitingTime="0.00" waitingCount="0" stopTime="0.00" timeLoss="8.41" rerouteNo="0" devices="tripinfo_SC_Rup_major.17 routing_SC_Rup_major.17" vType="car" speedFactor="1.06" vaporized=""/>
    <tripinfo id="SC_Rup_minor.2" depart="40.00" departLane="Rup_0" departPos="5.10" departSpeed="0.00" departDelay="3.08" arrival="141.00" arrivalLane="Ldown_1" arrivalPos="161.93" arrivalSpeed="15.66" duration="101.00" routeLength="677.17" waitingTime="21.00" waitingCount="3" stopTime="0.00" timeLoss="42.73" rerouteNo="0" devices="tripinfo_SC_Rup_minor.2 routing_SC_Rup_minor.2" vType="car" speedFactor="0.97" vaporized=""/>
    <tripinfo id="SC_Rup_major.16" depart="74.00" departLane="Rup_0" departPos="5.10" departSpeed="0.00" departDelay="0.06" arrival="141.00" arrivalLane="northbound_lanes_0" arrivalPos="122.67" arrivalSpeed="16.52" duration="67.00" routeLength="637.97" waitingTime="2.00" waitingCount="1" stopTime="0.00" timeLoss="15.38" rerouteNo="0" devices="tripinfo_SC_Rup_major.16 routing_SC_Rup_major.16" vType="car" speedFactor="1.04" vaporized=""/>
    <tripinfo id="SC_Rup_minor.3" depart="59.00" departLane="Rup_0" departPos="5.10" departSpeed="0.00" departDelay="3.62" arrival="143.00" arrivalLane="Ldown_1" arrivalPos="161.93" arrivalSpeed="16.21" duration="84.00" routeLength="677.17" waitingTime="6.00" waitingCount="2" stopTime="0.00" timeLoss="27.84" rerouteNo="0" devices="tripinfo_SC_Rup_minor.3 routing_SC_Rup_minor.3" vType="car" speedFactor="1.02" vaporized=""/>