<?xml version="1.0" encoding="UTF-8"?>

<!-- generated on 2026-05-25T13:55:57.752412+08:00 by Eclipse SUMO GUI 1.26.0
<sumoConfiguration xmlns:xsi="http://www.w3.org/2001/XMLSchema-instance" xsi:noNamespaceSchemaLocation="http://sumo.dlr.de/xsd/sumoConfiguration.xsd">

    <input>
        <net-file value="C:\Users\mmmma\TrafficProject\final\modified_cases\modified_midday\optimized_initial8_network.net.xml"/>
        <route-files value="C:\Users\mmmma\TrafficProject\final\modified_cases\modified_midday\routes_midday.rou.xml"/>
        <additional-files value="C:\Users\mmmma\TrafficProject\final\modified_cases\modified_midday\detectors.add.xml"/>
    </input>

    <output>
        <tripinfo-output value="C:\Users\mmmma\TrafficProject\final\modified_cases\modified_midday\outputs_midday/tripinfo.xml"/>
        <edgedata-output value="C:\Users\mmmma\TrafficProject\final\modified_cases\modified_midday\outputs_midday/edge_data.xml"/>
    </output>

    <time>
        <begin value="0"/>
        <end value="3600"/>
    </time>

    <gui_only>
        <start value="true"/>
    </gui_only>

</sumoConfiguration>
-->

<detector xmlns:xsi="http://www.w3.org/2001/XMLSchema-instance" xsi:noNamespaceSchemaLocation="http://sumo.dlr.de/xsd/det_e2_file.xsd">
   <interval begin="0.00" end="60.00" id="queue_Lup_0" sampledSeconds="86.86" nVehEntered="16" nVehLeft="12" nVehSeen="16" meanSpeed="9.28" meanTimeLoss="2.33" meanOccupancy="10.90" maxOccupancy="28.85" meanMaxJamLengthInVehicles="0.32" meanMaxJamLengthInMeters="1.34" maxJamLengthInVehicles="2" maxJamLengthInMeters="9.92" jamLengthInVehiclesSum="19" jamLengthInMetersSum="80.48" meanHaltingDuration="4.80" maxHaltingDuration="10.00" haltingDurationSum="24.00" meanIntervalHaltingDuration="4.80" maxIntervalHaltingDuration="10.00" intervalHaltingDurationSum="24.00" startedHalts="5.00" meanVehicleNumber="1.65" maxVehicleNumber="4" />
   <interval begin="0.00" end="60.00" id="queue_Lup_1" sampledSeconds="18.58" nVehEntered="5" nVehLeft="3" nVehSeen="5" meanSpeed="7.17" meanTimeLoss="2.14" meanOccupancy="1.97" maxOccupancy="12.37" meanMaxJamLengthInVehicles="0.07" meanMaxJamLengthInMeters="0.24" maxJamLengthInVehicles="2" maxJamLengthInMeters="9.91" jamLengthInVehiclesSum="4" jamLengthInMetersSum="14.54" meanHaltingDuration="3.00" maxHaltingDuration="4.00" haltingDurationSum="6.00" meanIntervalHaltingDuration="3.00" maxIntervalHaltingDuration="4.00" intervalHaltingDurationSum="6.00" startedHalts="2.00" meanVehicleNumber="0.33" maxVehicleNumber="2" />
   <interval begin="0.00" end="60.00" id="queue_Rup_0" sampledSeconds="18.99" nVehEntered="3" nVehLeft="1" nVehSeen="3" meanSpeed="10.28" meanTimeLoss="0.60" meanOccupancy="1.75" maxOccupancy="11.11" meanMaxJamLengthInVehicles="0.00" meanMaxJamLengthInMeters="0.00" maxJamLengthInVehicles="0" maxJamLengthInMeters="0.00" jamLengthInVehiclesSum="0" jamLengthInMetersSum="0.00" meanHaltingDuration="0.00" maxHaltingDuration="0.00" haltingDurationSum="0.00" meanIntervalHaltingDuration="0.00" maxIntervalHaltingDuration="0.00" intervalHaltingDurationSum="0.00" startedHalts="0.00" meanVehicleNumber="0.33" maxVehicleNumber="2" />
   <interval begin="0.00" end="60.00" id="queue_Rup_1" sampledSeconds="12.08" nVehEntered="2" nVehLeft="1" nVehSeen="2" meanSpeed="8.49" meanTimeLoss="0.67" meanOccupancy="1.18" maxOccupancy="11.11" meanMaxJamLengthInVehicles="0.00" meanMaxJamLengthInMeters="0.00" maxJamLengthInVehicles="0" maxJamLengthInMeters="0.00" jamLengthInVehiclesSum="0" jamLengthInMetersSum="0.00" meanHaltingDuration="0.00" maxHaltingDuration="0.00" haltingDurationSum="0.00" meanIntervalHaltingDuration="0.00" maxIntervalHaltingDuration="0.00" intervalHaltingDurationSum="0.00" startedHalts="0.00" meanVehicleNumber="0.22" maxVehicleNumber="2" />
   <interval begin="0.00" end="60.00" id="queue_Sbound_0" sampledSeconds="36.98" nVehEntered="9" nVehLeft="8" nVehSeen="9" meanSpeed="15.37" meanTimeLoss="0.17" meanOccupancy="4.64" maxOccupancy="8.33" meanMaxJamLengthInVehicles="0.00" meanMaxJamLengthInMeters="0.00" maxJamLengthInVehicles="0" maxJamLengthInMeters="0.00" jamLengthInVehiclesSum="0" jamLengthInMetersSum="0.00" meanHaltingDuration="0.00" maxHaltingDuration="0.00" haltingDurationSum="0.00" meanIntervalHaltingDuration="0.00" maxIntervalHaltingDuration="0.00" intervalHaltingDurationSum="0.00" startedHalts="0.00" meanVehicleNumber="0.75" maxVehicleNumber="1" />
   <interval begin="0.00" end="60.00" id="queue_Sbound_1" sampledSeconds="56.72" nVehEntered="2" nVehLeft="2" nVehSeen="2" meanSpeed="2.29" meanTimeLoss="24.61" meanOccupancy="4.25" maxOccupancy="10.50" meanMaxJamLengthInVehicles="0.70" meanMaxJamLengthInMeters="1.86" maxJamLengthInVehicles="2" maxJamLengthInMeters="8.88" jamLengthInVehiclesSum="42" jamLengthInMetersSum="111.73" meanHaltingDuration="22.00" maxHaltingDuration="33.00" haltingDurationSum="44.00" meanIntervalHaltingDuration="22.00" maxIntervalHaltingDuration="33.00" intervalHaltingDurationSum="44.00" startedHalts="2.00" meanVehicleNumber="0.97" maxVehicleNumber="2" />
   <interval begin="60.00" end="120.00" id="queue_Lup_0" sampledSeconds="327.48" nVehEntered="13" nVehLeft="15" nVehSeen="17" meanSpeed="1.94" meanTimeLoss="16.87" meanOccupancy="41.58" maxOccupancy="62.19" meanMaxJamLengthInVehicles="3.67" meanMaxJamLengthInMeters="24.04" maxJamLengthInVehicles="8" maxJamLengthInMeters="54.82" jamLengthInVehiclesSum="220" jamLengthInMetersSum="1442.11" meanHaltingDuration="27.22" maxHaltingDuration="44.00" haltingDurationSum="245.00" meanIntervalHaltingDuration="25.11" maxIntervalHaltingDuration="37.00" intervalHaltingDurationSum="226.00" startedHalts="6.00" meanVehicleNumber="5.68" maxVehicleNumber="8" />
   <interval begin="60.00" end="120.00" id="queue_Lup_1" sampledSeconds="271.50" nVehEntered="11" nVehLeft="12" nVehSeen="13" meanSpeed="2.31" meanTimeLoss="17.96" meanOccupancy="33.85" maxOccupancy="62.19" meanMaxJamLengthInVehicles="3.08" meanMaxJamLengthInMeters="19.77" maxJamLengthInVehicles="7" maxJamLengthInMeters="47.51" jamLengthInVehiclesSum="185" jamLengthInMetersSum="1186.07" meanHaltingDuration="22.00" maxHaltingDuration="38.00" haltingDurationSum="198.00" meanIntervalHaltingDuration="21.33" maxIntervalHaltingDuration="35.00" intervalHaltingDurationSum="192.00" startedHalts="7.00" meanVehicleNumber="4.70" maxVehicleNumber="8" />
   <interval begin="60.00" end="120.00" id="queue_Rup_0" sampledSeconds="60.75" nVehEntered="6" nVehLeft="7" nVehSeen="8" meanSpeed="8.92" meanTimeLoss="1.36" meanOccupancy="5.07" maxOccupancy="16.67" meanMaxJamLengthInVehicles="0.08" meanMaxJamLengthInMeters="0.25" maxJamLengthInVehicles="1" maxJamLengthInMeters="3.03" jamLengthInVehiclesSum="5" jamLengthInMetersSum="14.88" meanHaltingDuration="6.00" maxHaltingDuration="6.00" haltingDurationSum="6.00" meanIntervalHaltingDuration="6.00" maxIntervalHaltingDuration="6.00" intervalHaltingDurationSum="6.00" startedHalts="1.00" meanVehicleNumber="1.12" maxVehicleNumber="3" />
   <interval begin="60.00" end="120.00" id="queue_Rup_1" sampledSeconds="64.92" nVehEntered="5" nVehLeft="4" nVehSeen="6" meanSpeed="7.30" meanTimeLoss="4.21" meanOccupancy="5.23" maxOccupancy="11.11" meanMaxJamLengthInVehicles="0.30" meanMaxJamLengthInMeters="1.27" maxJamLengthInVehicles="2" maxJamLengthInMeters="10.51" jamLengthInVehiclesSum="18" jamLengthInMetersSum="75.97" meanHaltingDuration="10.00" maxHaltingDuration="14.00" haltingDurationSum="20.00" meanIntervalHaltingDuration="10.00" maxIntervalHaltingDuration="14.00" intervalHaltingDurationSum="20.00" startedHalts="2.00" meanVehicleNumber="1.13" maxVehicleNumber="2" />
   <interval begin="60.00" end="120.00" id="queue_Sbound_0" sampledSeconds="41.12" nVehEntered="10" nVehLeft="10" nVehSeen="11" meanSpeed="15.73" meanTimeLoss="0.21" meanOccupancy="5.29" maxOccupancy="8.33" meanMaxJamLengthInVehicles="0.00" meanMaxJamLengthInMeters="0.00" maxJamLengthInVehicles="0" maxJamLengthInMeters="0.00" jamLengthInVehiclesSum="0" jamLengthInMetersSum="0.00" meanHaltingDuration="0.00" maxHaltingDuration="0.00" haltingDurationSum="0.00" meanIntervalHaltingDuration="0.00" maxIntervalHaltingDuration="0.00" intervalHaltingDurationSum="0.00" startedHalts="0.00" meanVehicleNumber="0.83" maxVehicleNumber="1" />
   <interval begin="60.00" end="120.00" id="queue_Sbound_1" sampledSeconds="51.67" nVehEntered="3" nVehLeft="1" nVehSeen="3" meanSpeed="3.58" meanTimeLoss="13.68" meanOccupancy="4.14" maxOccupancy="10.50" meanMaxJamLengthInVehicles="0.58" meanMaxJamLengthInMeters="1.38" maxJamLengthInVehicles="2" maxJamLengthInMeters="8.88" jamLengthInVehiclesSum="35" jamLengthInMetersSum="82.87" meanHaltingDuration="18.50" maxHaltingDuration="30.00" haltingDurationSum="37.00" meanIntervalHaltingDuration="18.50" maxIntervalHaltingDuration="30.00" intervalHaltingDurationSum="37.00" startedHalts="2.00" meanVehicleNumber="0.90" maxVehicleNumber="2" />
   <interval begin="120.00" end="180.00" id="queue_Lup_0" sampledSeconds="161.90" nVehEntered="18" nVehLeft="14" nVehSeen="20" meanSpeed="5.11" meanTimeLoss="5.49" meanOccupancy="20.25" maxOccupancy="53.85" meanMaxJamLengthInVehicles="1.47" meanMaxJamLengthInMeters="8.75" maxJamLengthInVehicles="5" maxJamLengthInMeters="32.33" jamLengthInVehiclesSum="88" jamLengthInMetersSum="525.19" meanHaltingDuration="15.67" maxHaltingDuration="27.00" haltingDurationSum="94.00" meanIntervalHaltingDuration="15.67" maxIntervalHaltingDuration="27.00" intervalHaltingDurationSum="94.00" startedHalts="6.00" meanVehicleNumber="2.88" maxVehicleNumber="7" />
   <interval begin="120.00" end="180.00" id="queue_Lup_1" sampledSeconds="98.00" nVehEntered="7" nVehLeft="2" nVehSeen="8" meanSpeed="1.57" meanTimeLoss="11.09" meanOccupancy="10.95" maxOccupancy="45.52" meanMaxJamLengthInVehicles="1.27" meanMaxJamLengthInMeters="6.74" maxJamLengthInVehicles="5" maxJamLengthInMeters="32.32" jamLengthInVehiclesSum="76" jamLengthInMetersSum="404.22" meanHaltingDuration="16.20" maxHaltingDuration="33.00" haltingDurationSum="81.00" meanIntervalHaltingDuration="16.20" maxIntervalHaltingDuration="33.00" intervalHaltingDurationSum="81.00" startedHalts="5.00" meanVehicleNumber="1.65" maxVehicleNumber="6" />
   <interval begin="120.00" end="180.00" id="queue_Rup_0" sampledSeconds="146.23" nVehEntered="13" nVehLeft="13" nVehSeen="14" meanSpeed="5.90" meanTimeLoss="4.89" meanOccupancy="12.04" maxOccupancy="25.50" meanMaxJamLengthInVehicles="0.77" meanMaxJamLengthInMeters="3.81" maxJamLengthInVehicles="3" maxJamLengthInMeters="17.98" jamLengthInVehiclesSum="46" jamLengthInMetersSum="228.81" meanHaltingDuration="11.20" maxHaltingDuration="29.00" haltingDurationSum="56.00" meanIntervalHaltingDuration="10.00" maxIntervalHaltingDuration="23.00" intervalHaltingDurationSum="50.00" startedHalts="4.00" meanVehicleNumber="2.60" maxVehicleNumber="5" />
   <interval begin="120.00" end="180.00" id="queue_Rup_1" sampledSeconds="148.96" nVehEntered="5" nVehLeft="6" nVehSeen="7" meanSpeed="1.69" meanTimeLoss="18.23" meanOccupancy="12.21" maxOccupancy="20.95" meanMaxJamLengthInVehicles="1.77" meanMaxJamLengthInMeters="10.20" maxJamLengthInVehicles="4" maxJamLengthInMeters="25.52" jamLengthInVehiclesSum="106" jamLengthInMetersSum="611.74" meanHaltingDuration="16.29" maxHaltingDuration="38.00" haltingDurationSum="114.00" meanIntervalHaltingDuration="13.43" maxIntervalHaltingDuration="25.00" intervalHaltingDurationSum="94.00" startedHalts="8.00" meanVehicleNumber="2.53" maxVehicleNumber="4" />
   <interval begin="120.00" end="180.00" id="queue_Sbound_0" sampledSeconds="39.57" nVehEntered="10" nVehLeft="10" nVehSeen="11" meanSpeed="16.26" meanTimeLoss="0.21" meanOccupancy="5.36" maxOccupancy="8.33" meanMaxJamLengthInVehicles="0.00" meanMaxJamLengthInMeters="0.00" maxJamLengthInVehicles="0" maxJamLengthInMeters="0.00" jamLengthInVehiclesSum="0" jamLengthInMetersSum="0.00" meanHaltingDuration="0.00" maxHaltingDuration="0.00" haltingDurationSum="0.00" meanIntervalHaltingDuration="0.00" maxIntervalHaltingDuration="0.00" intervalHaltingDurationSum="0.00" startedHalts="0.00" meanVehicleNumber="0.85" maxVehicleNumber="1" />
   <interval begin="120.00" end="180.00" id="queue_Sbound_1" sampledSeconds="81.92" nVehEntered="2" nVehLeft="4" nVehSeen="4" meanSpeed="1.71" meanTimeLoss="18.33" meanOccupancy="8.26" maxOccupancy="18.84" meanMaxJamLengthInVehicles="1.08" meanMaxJamLengthInMeters="5.34" maxJamLengthInVehicles="3" maxJamLengthInMeters="16.34" jamLengthInVehiclesSum="65" jamLengthInMetersSum="320.26" meanHaltingDuration="34.33" maxHaltingDuration="56.00" haltingDurationSum="103.00" meanIntervalHaltingDuration="22.00" maxIntervalHaltingDuration="28.00" intervalHaltingDurationSum="66.00" startedHalts="1.00" meanVehicleNumber="1.38" maxVehicleNumber="3" />
   <interval begin="180.00" end="240.00" id="queue_Lup_0" sampledSeconds="221.61" nVehEntered="15" nVehLeft="18" nVehSeen="21" meanSpeed="4.02" meanTimeLoss="7.83" meanOccupancy="28.15" maxOccupancy="62.19" meanMaxJamLengthInVehicles="1.88" meanMaxJamLengthInMeters="12.65" maxJamLengthInVehicles="7" maxJamLengthInMeters="50.87" jamLengthInVehiclesSum="113" jamLengthInMetersSum="758.94" meanHaltingDuration="21.10" maxHaltingDuration="38.00" haltingDurationSum="211.00" meanIntervalHaltingDuration="11.70" maxIntervalHaltingDuration="17.00" intervalHaltingDurationSum="117.00" startedHalts="4.00" meanVehicleNumber="3.95" maxVehicleNumber="8" />
   <interval begin="180.00" end="240.00" id="queue_Lup_1" sampledSeconds="163.94" nVehEntered="8" nVehLeft="13" nVehSeen="14" meanSpeed="3.15" meanTimeLoss="9.60" meanOccupancy="20.22" maxOccupancy="53.85" meanMaxJamLengthInVehicles="1.52" meanMaxJamLengthInMeters="9.98" maxJamLengthInVehicles="7" maxJamLengthInMeters="47.38" jamLengthInVehiclesSum="91" jamLengthInMetersSum="598.78" meanHaltingDuration="17.70" maxHaltingDuration="43.00" haltingDurationSum="177.00" meanIntervalHaltingDuration="9.60" maxIntervalHaltingDuration="15.00" intervalHaltingDurationSum="96.00" startedHalts="5.00" meanVehicleNumber="2.87" maxVehicleNumber="7" />
   <interval begin="180.00" end="240.00" id="queue_Rup_0" sampledSeconds="137.23" nVehEntered="8" nVehLeft="6" nVehSeen="9" meanSpeed="4.86" meanTimeLoss="8.69" meanOccupancy="11.41" maxOccupancy="19.95" meanMaxJamLengthInVehicles="0.98" meanMaxJamLengthInMeters="5.21" maxJamLengthInVehicles="3" maxJamLengthInMeters="17.96" jamLengthInVehiclesSum="59" jamLengthInMetersSum="312.34" meanHaltingDuration="15.75" maxHaltingDuration="28.00" haltingDurationSum="63.00" meanIntervalHaltingDuration="15.75" maxIntervalHaltingDuration="28.00" intervalHaltingDurationSum="63.00" startedHalts="4.00" meanVehicleNumber="2.35" maxVehicleNumber="4" />
   <interval begin="180.00" end="240.00" id="queue_Rup_1" sampledSeconds="96.27" nVehEntered="5" nVehLeft="1" nVehSeen="6" meanSpeed="2.94" meanTimeLoss="12.16" meanOccupancy="8.30" maxOccupancy="26.50" meanMaxJamLengthInVehicles="1.08" meanMaxJamLengthInMeters="6.36" maxJamLengthInVehicles="3" maxJamLengthInMeters="18.86" jamLengthInVehiclesSum="65" jamLengthInMetersSum="381.86" meanHaltingDuration="22.67" maxHaltingDuration="30.00" haltingDurationSum="68.00" meanIntervalHaltingDuration="22.67" maxIntervalHaltingDuration="30.00" intervalHaltingDurationSum="68.00" startedHalts="3.00" meanVehicleNumber="1.63" maxVehicleNumber="5" />
   <interval begin="180.00" end="240.00" id="queue_Sbound_0" sampledSeconds="40.31" nVehEntered="10" nVehLeft="10" nVehSeen="11" meanSpeed="16.00" meanTimeLoss="0.23" meanOccupancy="5.26" maxOccupancy="8.33" meanMaxJamLengthInVehicles="0.00" meanMaxJamLengthInMeters="0.00" maxJamLengthInVehicles="0" maxJamLengthInMeters="0.00" jamLengthInVehiclesSum="0" jamLengthInMetersSum="0.00" meanHaltingDuration="0.00" maxHaltingDuration="0.00" haltingDurationSum="0.00" meanIntervalHaltingDuration="0.00" maxIntervalHaltingDuration="0.00" intervalHaltingDurationSum="0.00" startedHalts="0.00" meanVehicleNumber="0.87" maxVehicleNumber="1" />
   <interval begin="180.00" end="240.00" id="queue_Sbound_1" sampledSeconds="100.92" nVehEntered="3" nVehLeft="2" nVehSeen="3" meanSpeed="1.82" meanTimeLoss="30.11" meanOccupancy="8.65" maxOccupancy="18.84" meanMaxJamLengthInVehicles="1.30" meanMaxJamLengthInMeters="4.61" maxJamLengthInVehicles="3" maxJamLengthInMeters="16.34" jamLengthInVehiclesSum="78" jamLengthInMetersSum="276.68" meanHaltingDuration="27.00" maxHaltingDuration="50.00" haltingDurationSum="81.00" meanIntervalHaltingDuration="27.00" maxIntervalHaltingDuration="50.00" intervalHaltingDurationSum="81.00" startedHalts="3.00" meanVehicleNumber="1.72" maxVehicleNumber="3" />
   <interval begin="240.00" end="300.00" id="queue_Lup_0" sampledSeconds="386.57" nVehEntered="11" nVehLeft="7" nVehSeen="14" meanSpeed="0.85" meanTimeLoss="26.19" meanOccupancy="48.61" maxOccupancy="66.65" meanMaxJamLengthInVehicles="5.62" meanMaxJamLengthInMeters="36.67" maxJamLengthInVehicles="9" maxJamLengthInMeters="60.00" jamLengthInVehiclesSum="337" jamLengthInMetersSum="2200.24" meanHaltingDuration="38.55" maxHaltingDuration="56.00" haltingDurationSum="347.00" meanIntervalHaltingDuration="38.33" maxIntervalHaltingDuration="54.00" intervalHaltingDurationSum="345.00" startedHalts="8.00" meanVehicleNumber="6.55" maxVehicleNumber="9" />
   <interval begin="240.00" end="300.00" id="queue_Lup_1" sampledSeconds="333.13" nVehEntered="8" nVehLeft="2" nVehSeen="9" meanSpeed="0.48" meanTimeLoss="35.93" meanOccupancy="41.19" maxOccupancy="66.65" meanMaxJamLengthInVehicles="4.98" meanMaxJamLengthInMeters="32.12" maxJamLengthInVehicles="9" maxJamLengthInMeters="60.00" jamLengthInVehiclesSum="299" jamLengthInMetersSum="1926.93" meanHaltingDuration="34.55" maxHaltingDuration="58.00" haltingDurationSum="311.00" meanIntervalHaltingDuration="34.11" maxIntervalHaltingDuration="54.00" intervalHaltingDurationSum="307.00" startedHalts="8.00" meanVehicleNumber="5.60" maxVehicleNumber="9" />
   <interval begin="240.00" end="300.00" id="queue_Rup_0" sampledSeconds="83.97" nVehEntered="11" nVehLeft="13" nVehSeen="14" meanSpeed="10.03" meanTimeLoss="0.85" meanOccupancy="7.10" maxOccupancy="12.95" meanMaxJamLengthInVehicles="0.00" meanMaxJamLengthInMeters="0.00" maxJamLengthInVehicles="0" maxJamLengthInMeters="0.00" jamLengthInVehiclesSum="0" jamLengthInMetersSum="0.00" meanHaltingDuration="1.00" maxHaltingDuration="1.00" haltingDurationSum="1.00" meanIntervalHaltingDuration="1.00" maxIntervalHaltingDuration="1.00" intervalHaltingDurationSum="1.00" startedHalts="1.00" meanVehicleNumber="1.58" maxVehicleNumber="3" />
   <interval begin="240.00" end="300.00" id="queue_Rup_1" sampledSeconds="104.24" nVehEntered="2" nVehLeft="6" nVehSeen="7" meanSpeed="2.53" meanTimeLoss="11.54" meanOccupancy="8.89" maxOccupancy="26.50" meanMaxJamLengthInVehicles="1.05" meanMaxJamLengthInMeters="6.22" maxJamLengthInVehicles="4" maxJamLengthInMeters="26.37" jamLengthInVehiclesSum="64" jamLengthInMetersSum="378.23" meanHaltingDuration="15.60" maxHaltingDuration="30.00" haltingDurationSum="78.00" meanIntervalHaltingDuration="11.00" maxIntervalHaltingDuration="20.00" intervalHaltingDurationSum="55.00" startedHalts="4.00" meanVehicleNumber="1.77" maxVehicleNumber="5" />
   <interval begin="240.00" end="300.00" id="queue_Sbound_0" sampledSeconds="39.64" nVehEntered="9" nVehLeft="10" nVehSeen="10" meanSpeed="15.55" meanTimeLoss="0.22" meanOccupancy="4.97" maxOccupancy="8.33" meanMaxJamLengthInVehicles="0.00" meanMaxJamLengthInMeters="0.00" maxJamLengthInVehicles="0" maxJamLengthInMeters="0.00" jamLengthInVehiclesSum="0" jamLengthInMetersSum="0.00" meanHaltingDuration="0.00" maxHaltingDuration="0.00" haltingDurationSum="0.00" meanIntervalHaltingDuration="0.00" maxIntervalHaltingDuration="0.00" intervalHaltingDurationSum="0.00" startedHalts="0.00" meanVehicleNumber="0.85" maxVehicleNumber="2" />
   <interval begin="240.00" end="300.00" id="queue_Sbound_1" sampledSeconds="34.06" nVehEntered="3" nVehLeft="2" nVehSeen="4" meanSpeed="5.02" meanTimeLoss="5.93" meanOccupancy="2.39" maxOccupancy="10.50" meanMaxJamLengthInVehicles="0.32" meanMaxJamLengthInMeters="0.41" maxJamLengthInVehicles="1" maxJamLengthInMeters="1.44" jamLengthInVehiclesSum="19" jamLengthInMetersSum="24.90" meanHaltingDuration="20.00" maxHaltingDuration="20.00" haltingDurationSum="20.00" meanIntervalHaltingDuration="20.00" maxIntervalHaltingDuration="20.00" intervalHaltingDurationSum="20.00" startedHalts="1.00" meanVehicleNumber="0.60" maxVehicleNumber="2" />
   <interval begin="300.00" end="360.00" id="queue_Lup_0" sampledSeconds="144.52" nVehEntered="17" nVehLeft="23" nVehSeen="24" meanSpeed="8.60" meanTimeLoss="2.82" meanOccupancy="18.30" maxOccupancy="46.13" meanMaxJamLengthInVehicles="0.15" meanMaxJamLengthInMeters="0.87" maxJamLengthInVehicles="3" maxJamLengthInMeters="19.18" jamLengthInVehiclesSum="9" jamLengthInMetersSum="52.24" meanHaltingDuration="28.00" maxHaltingDuration="34.00" haltingDurationSum="112.00" meanIntervalHaltingDuration="2.25" maxIntervalHaltingDuration="4.00" intervalHaltingDurationSum="9.00" startedHalts="0.00" meanVehicleNumber="2.75" maxVehicleNumber="7" />
   <interval begin="300.00" end="360.00" id="queue_Lup_1" sampledSeconds="81.65" nVehEntered="9" nVehLeft="15" nVehSeen="16" meanSpeed="8.83" meanTimeLoss="2.34" meanOccupancy="10.03" maxOccupancy="46.13" meanMaxJamLengthInVehicles="0.17" meanMaxJamLengthInMeters="0.98" maxJamLengthInVehicles="4" maxJamLengthInMeters="26.28" jamLengthInVehiclesSum="10" jamLengthInMetersSum="59.02" meanHaltingDuration="25.80" maxHaltingDuration="36.00" haltingDurationSum="129.00" meanIntervalHaltingDuration="2.00" maxIntervalHaltingDuration="4.00" intervalHaltingDurationSum="10.00" startedHalts="0.00" meanVehicleNumber="1.53" maxVehicleNumber="7" />
   <interval begin="300.00" end="360.00" id="queue_Rup_0" sampledSeconds="181.78" nVehEntered="6" nVehLeft="3" nVehSeen="7" meanSpeed="2.50" meanTimeLoss="19.79" meanOccupancy="14.88" maxOccupancy="25.50" meanMaxJamLengthInVehicles="2.10" meanMaxJamLengthInMeters="11.83" maxJamLengthInVehicles="4" maxJamLengthInMeters="25.51" jamLengthInVehiclesSum="126" jamLengthInMetersSum="709.64" meanHaltingDuration="32.50" maxHaltingDuration="52.00" haltingDurationSum="130.00" meanIntervalHaltingDuration="32.50" maxIntervalHaltingDuration="52.00" intervalHaltingDurationSum="130.00" startedHalts="4.00" meanVehicleNumber="3.08" maxVehicleNumber="5" />
   <interval begin="300.00" end="360.00" id="queue_Rup_1" sampledSeconds="167.77" nVehEntered="6" nVehLeft="1" nVehSeen="7" meanSpeed="2.04" meanTimeLoss="19.66" meanOccupancy="14.54" maxOccupancy="32.06" meanMaxJamLengthInVehicles="2.07" meanMaxJamLengthInMeters="12.65" maxJamLengthInVehicles="5" maxJamLengthInMeters="33.86" jamLengthInVehiclesSum="124" jamLengthInMetersSum="759.18" meanHaltingDuration="25.80" maxHaltingDuration="48.00" haltingDurationSum="129.00" meanIntervalHaltingDuration="25.80" maxIntervalHaltingDuration="48.00" intervalHaltingDurationSum="129.00" startedHalts="5.00" meanVehicleNumber="2.83" maxVehicleNumber="6" />
   <interval begin="300.00" end="360.00" id="queue_Sbound_0" sampledSeconds="40.75" nVehEntered="11" nVehLeft="10" nVehSeen="11" meanSpeed="16.25" meanTimeLoss="0.26" meanOccupancy="5.37" maxOccupancy="8.33" meanMaxJamLengthInVehicles="0.00" meanMaxJamLengthInMeters="0.00" maxJamLengthInVehicles="0" maxJamLengthInMeters="0.00" jamLengthInVehiclesSum="0" jamLengthInMetersSum="0.00" meanHaltingDuration="0.00" maxHaltingDuration="0.00" haltingDurationSum="0.00" meanIntervalHaltingDuration="0.00" maxIntervalHaltingDuration="0.00" intervalHaltingDurationSum="0.00" startedHalts="0.00" meanVehicleNumber="0.85" maxVehicleNumber="2" />
   <interval begin="300.00" end="360.00" id="queue_Sbound_1" sampledSeconds="162.73" nVehEntered="2" nVehLeft="1" nVehSeen="4" meanSpeed="0.72" meanTimeLoss="39.06" meanOccupancy="16.62" maxOccupancy="27.17" meanMaxJamLengthInVehicles="2.45" meanMaxJamLengthInMeters="12.31" maxJamLengthInVehicles="4" maxJamLengthInMeters="23.81" jamLengthInVehiclesSum="147" jamLengthInMetersSum="738.54" meanHaltingDuration="42.50" maxHaltingDuration="78.00" haltingDurationSum="170.00" meanIntervalHaltingDuration="37.50" maxIntervalHaltingDuration="58.00" intervalHaltingDurationSum="150.00" startedHalts="3.00" meanVehicleNumber="2.75" maxVehicleNumber="4" />
   <interval begin="360.00" end="420.00" id="queue_Lup_0" sampledSeconds="299.88" nVehEntered="15" nVehLeft="13" nVehSeen="16" meanSpeed="2.10" meanTimeLoss="16.44" meanOccupancy="38.01" maxOccupancy="62.19" meanMaxJamLengthInVehicles="3.42" meanMaxJamLengthInMeters="21.74" maxJamLengthInVehicles="7" maxJamLengthInMeters="51.36" jamLengthInVehiclesSum="205" jamLengthInMetersSum="1304.30" meanHaltingDuration="19.64" maxHaltingDuration="40.00" haltingDurationSum="216.00" meanIntervalHaltingDuration="19.64" maxIntervalHaltingDuration="40.00" intervalHaltingDurationSum="216.00" startedHalts="11.00" meanVehicleNumber="5.20" maxVehicleNumber="8" />
   <interval begin="360.00" end="420.00" id="queue_Lup_1" sampledSeconds="241.67" nVehEntered="9" nVehLeft="7" nVehSeen="10" meanSpeed="1.73" meanTimeLoss="21.56" meanOccupancy="29.29" maxOccupancy="57.31" meanMaxJamLengthInVehicles="2.77" meanMaxJamLengthInMeters="16.82" maxJamLengthInVehicles="7" maxJamLengthInMeters="47.36" jamLengthInVehiclesSum="166" jamLengthInMetersSum="1009.08" meanHaltingDuration="19.44" maxHaltingDuration="43.00" haltingDurationSum="175.00" meanIntervalHaltingDuration="19.44" maxIntervalHaltingDuration="43.00" intervalHaltingDurationSum="175.00" startedHalts="9.00" meanVehicleNumber="4.15" maxVehicleNumber="8" />
   <interval begin="360.00" end="420.00" id="queue_Rup_0" sampledSeconds="107.45" nVehEntered="12" nVehLeft="14" nVehSeen="16" meanSpeed="8.12" meanTimeLoss="1.68" meanOccupancy="9.04" maxOccupancy="23.87" meanMaxJamLengthInVehicles="0.03" meanMaxJamLengthInMeters="0.17" maxJamLengthInVehicles="1" maxJamLengthInMeters="5.00" jamLengthInVehiclesSum="2" jamLengthInMetersSum="10.00" meanHaltingDuration="15.67" maxHaltingDuration="25.00" haltingDurationSum="47.00" meanIntervalHaltingDuration="1.00" maxIntervalHaltingDuration="2.00" intervalHaltingDurationSum="3.00" startedHalts="1.00" meanVehicleNumber="1.93" maxVehicleNumber="5" />
   <interval begin="360.00" end="420.00" id="queue_Rup_1" sampledSeconds="147.19" nVehEntered="3" nVehLeft="8" nVehSeen="9" meanSpeed="2.29" meanTimeLoss="12.96" meanOccupancy="12.84" maxOccupancy="32.06" meanMaxJamLengthInVehicles="1.58" meanMaxJamLengthInMeters="10.49" maxJamLengthInVehicles="6" maxJamLengthInMeters="41.37" jamLengthInVehiclesSum="96" jamLengthInMetersSum="634.31" meanHaltingDuration="19.00" maxHaltingDuration="52.00" haltingDurationSum="114.00" meanIntervalHaltingDuration="9.50" maxIntervalHaltingDuration="20.00" intervalHaltingDurationSum="57.00" startedHalts="5.00" meanVehicleNumber="2.50" maxVehicleNumber="6" />
   <interval begin="360.00" end="420.00" id="queue_Sbound_0" sampledSeconds="43.43" nVehEntered="9" nVehLeft="10" nVehSeen="10" meanSpeed="14.69" meanTimeLoss="0.24" meanOccupancy="5.54" maxOccupancy="8.33" meanMaxJamLengthInVehicles="0.00" meanMaxJamLengthInMeters="0.00" maxJamLengthInVehicles="0" maxJamLengthInMeters="0.00" jamLengthInVehiclesSum="0" jamLengthInMetersSum="0.00" meanHaltingDuration="0.00" maxHaltingDuration="0.00" haltingDurationSum="0.00" meanIntervalHaltingDuration="0.00" maxIntervalHaltingDuration="0.00" intervalHaltingDurationSum="0.00" startedHalts="0.00" meanVehicleNumber="0.85" maxVehicleNumber="1" />
   <interval begin="360.00" end="420.00" id="queue_Sbound_1" sampledSeconds="41.80" nVehEntered="3" nVehLeft="4" nVehSeen="6" meanSpeed="4.59" meanTimeLoss="5.03" meanOccupancy="3.32" maxOccupancy="22.73" meanMaxJamLengthInVehicles="0.33" meanMaxJamLengthInMeters="0.56" maxJamLengthInVehicles="1" maxJamLengthInMeters="5.00" jamLengthInVehiclesSum="20" jamLengthInMetersSum="33.44" meanHaltingDuration="19.00" maxHaltingDuration="30.00" haltingDurationSum="57.00" meanIntervalHaltingDuration="7.00" maxIntervalHaltingDuration="19.00" intervalHaltingDurationSum="21.00" startedHalts="1.00" meanVehicleNumber="0.75" maxVehicleNumber="3" />
   <interval begin="420.00" end="480.00" id="queue_Lup_0" sampledSeconds="206.81" nVehEntered="18" nVehLeft="14" nVehSeen="21" meanSpeed="3.52" meanTimeLoss="7.72" meanOccupancy="26.05" maxOccupancy="55.00" meanMaxJamLengthInVehicles="2.20" meanMaxJamLengthInMeters="13.57" maxJamLengthInVehicles="6" maxJamLengthInMeters="39.83" jamLengthInVehiclesSum="132" jamLengthInMetersSum="814.02" meanHaltingDuration="19.86" maxHaltingDuration="35.00" haltingDurationSum="139.00" meanIntervalHaltingDuration="19.86" maxIntervalHaltingDuration="35.00" intervalHaltingDurationSum="139.00" startedHalts="7.00" meanVehicleNumber="3.68" maxVehicleNumber="8" />
   <interval begin="420.00" end="480.00" id="queue_Lup_1" sampledSeconds="148.21" nVehEntered="8" nVehLeft="5" nVehSeen="11" meanSpeed="2.07" meanTimeLoss="11.86" meanOccupancy="17.40" maxOccupancy="45.52" meanMaxJamLengthInVehicles="1.88" meanMaxJamLengthInMeters="10.93" maxJamLengthInVehicles="6" maxJamLengthInMeters="39.82" jamLengthInVehiclesSum="113" jamLengthInMetersSum="655.78" meanHaltingDuration="19.83" maxHaltingDuration="38.00" haltingDurationSum="119.00" meanIntervalHaltingDuration="19.83" maxIntervalHaltingDuration="38.00" intervalHaltingDurationSum="119.00" startedHalts="6.00" meanVehicleNumber="2.53" maxVehicleNumber="6" />