<?xml version="1.0" encoding="UTF-8"?>

<!-- generated on 2026-05-25T13:55:57.750353+08:00 by Eclipse SUMO GUI 1.26.0
<sumoConfiguration xmlns:xsi="http://www.w3.org/2001/XMLSchema-instance" xsi:noNamespaceSchemaLocation="http://sumo.dlr.de/xsd/sumoConfiguration.xsd">

    <input>
        <net-file value="C:\Users\mmmma\TrafficProject\final\modified_cases\modified_midday\optimized_initial8_network.net.xml"/>
        <route-files value="C:\Users\mmmma\TrafficProject\final\modified_cases\modified_midday\routes_midday.rou.xml"/>
        <additional-files value="C:\Users\mmmma\TrafficProject\final\modified_cases\modified_midday\detectors.add.xml"/>
    </input>

    <output>
        <tripinfo-output value="C:\Users\mmmma\TrafficProject\final\modified_cases\modified_midday\outputs_midday/tripinfo.xml"/>
        <edgedata-output value="C:\Users\mmmma\TrafficProject\final\modified_cases\modified_midday\outputs_midday/edge_data.xml"/>
    </output>

    <time>
        <begin value="0"/>
        <end value="3600"/>
    </time>

    <gui_only>
        <start value="true"/>
    </gui_only>

</sumoConfiguration>
-->

<tripinfos xmlns:xsi="http://www.w3.org/2001/XMLSchema-instance" xsi:noNamespaceSchemaLocation="http://sumo.dlr.de/xsd/tripinfo_file.xsd">
    <tripinfo id="MD_Sbound_straight.0" depart="0.00" departLane="southbound_lanes_0" departPos="5.10" departSpeed="0.00" departDelay="0.00" arrival="23.00" arrivalLane="Ldown_0" arrivalPos="161.93" arrivalSpeed="16.53" duration="23.00" routeLength="305.87" waitingTime="0.00" waitingCount="0" stopTime="0.00" timeLoss="3.89" rerouteNo="0" devices="tripinfo_MD_Sbound_straight.0 routing_MD_Sbound_straight.0" vType="car" speedFactor="1.01" vaporized=""/>
    <tripinfo id="MD_Lup_straight.1" depart="6.00" departLane="Lup_0" departPos="5.10" departSpeed="0.00" departDelay="1.97" arrival="29.00" arrivalLane="northbound_lanes_1" arrivalPos="122.67" arrivalSpeed="17.19" duration="23.00" routeLength="311.00" waitingTime="0.00" waitingCount="0" stopTime="0.00" timeLoss="4.54" rerouteNo="0" devices="tripinfo_MD_Lup_straight.1 routing_MD_Lup_straight.1" vType="car" speedFactor="1.05" vaporized=""/>
    <tripinfo id="MD_Lup_straight.0" depart="0.00" departLane="Lup_0" departPos="5.10" departSpeed="0.00" departDelay="0.00" arrival="31.00" arrivalLane="northbound_lanes_0" arrivalPos="122.67" arrivalSpeed="17.34" duration="31.00" routeLength="311.00" waitingTime="1.00" waitingCount="1" stopTime="0.00" timeLoss="12.78" rerouteNo="0" devices="tripinfo_MD_Lup_straight.0 routing_MD_Lup_straight.0" vType="car" speedFactor="1.06" vaporized=""/>
    <tripinfo id="MD_Sbound_straight.1" depart="7.00" departLane="southbound_lanes_0" departPos="5.10" departSpeed="0.00" departDelay="0.95" arrival="32.00" arrivalLane="Ldown_0" arrivalPos="161.93" arrivalSpeed="13.58" duration="25.00" routeLength="305.87" waitingTime="0.00" waitingCount="0" stopTime="0.00" timeLoss="4.20" rerouteNo="0" devices="tripinfo_MD_Sbound_straight.1 routing_MD_Sbound_straight.1" vType="car" speedFactor="0.89" vaporized=""/>
    <tripinfo id="MD_Lup_straight.2" depart="9.00" departLane="Lup_0" departPos="5.10" departSpeed="0.00" departDelay="0.93" arrival="35.00" arrivalLane="northbound_lanes_1" arrivalPos="122.67" arrivalSpeed="13.43" duration="26.00" routeLength="311.00" waitingTime="0.00" waitingCount="0" stopTime="0.00" timeLoss="3.96" rerouteNo="0" devices="tripinfo_MD_Lup_straight.2 routing_MD_Lup_straight.2" vType="car" speedFactor="0.86" vaporized=""/>
    <tripinfo id="MD_Lup_straight.3" depart="13.00" departLane="Lup_0" departPos="5.10" departSpeed="0.00" departDelay="0.90" arrival="35.00" arrivalLane="northbound_lanes_0" arrivalPos="122.67" arrivalSpeed="17.19" duration="22.00" routeLength="311.00" waitingTime="0.00" waitingCount="0" stopTime="0.00" timeLoss="4.77" rerouteNo="0" devices="tripinfo_MD_Lup_straight.3 routing_MD_Lup_straight.3" vType="car" speedFactor="1.09" vaporized=""/>
    <tripinfo id="MD_Sbound_straight.2" depart="13.00" departLane="southbound_lanes_0" departPos="5.10" departSpeed="0.00" departDelay="0.90" arrival="36.00" arrivalLane="Ldown_0" arrivalPos="161.93" arrivalSpeed="16.80" duration="23.00" routeLength="305.87" waitingTime="0.00" waitingCount="0" stopTime="0.00" timeLoss="4.60" rerouteNo="0" devices="tripinfo_MD_Sbound_straight.2 routing_MD_Sbound_straight.2" vType="car" speedFactor="1.03" vaporized=""/>
    <tripinfo id="MD_Lup_straight.4" depart="17.00" departLane="Lup_0" departPos="5.10" departSpeed="0.00" departDelay="0.86" arrival="40.00" arrivalLane="northbound_lanes_0" arrivalPos="122.67" arrivalSpeed="17.92" duration="23.00" routeLength="311.00" waitingTime="0.00" waitingCount="0" stopTime="0.00" timeLoss="5.51" rerouteNo="0" devices="tripinfo_MD_Lup_straight.4 routing_MD_Lup_straight.4" vType="car" speedFactor="1.12" vaporized=""/>
    <tripinfo id="MD_Sbound_straight.3" depart="19.00" departLane="southbound_lanes_0" departPos="5.10" departSpeed="0.00" departDelay="0.85" arrival="43.00" arrivalLane="Ldown_0" arrivalPos="161.93" arrivalSpeed="14.73" duration="24.00" routeLength="305.87" waitingTime="0.00" waitingCount="0" stopTime="0.00" timeLoss="3.96" rerouteNo="0" devices="tripinfo_MD_Sbound_straight.3 routing_MD_Sbound_straight.3" vType="car" speedFactor="0.93" vaporized=""/>
    <tripinfo id="MD_Sbound_straight.4" depart="25.00" departLane="southbound_lanes_0" departPos="5.10" departSpeed="0.00" departDelay="0.80" arrival="46.00" arrivalLane="Ldown_0" arrivalPos="161.93" arrivalSpeed="18.35" duration="21.00" routeLength="305.87" waitingTime="0.00" waitingCount="0" stopTime="0.00" timeLoss="4.87" rerouteNo="0" devices="tripinfo_MD_Sbound_straight.4 routing_MD_Sbound_straight.4" vType="car" speedFactor="1.16" vaporized=""/>
    <tripinfo id="MD_Lup_straight.5" depart="23.00" departLane="Lup_0" departPos="5.10" departSpeed="0.00" departDelay="2.83" arrival="49.00" arrivalLane="northbound_lanes_1" arrivalPos="122.67" arrivalSpeed="14.14" duration="26.00" routeLength="311.00" waitingTime="0.00" waitingCount="0" stopTime="0.00" timeLoss="4.10" rerouteNo="0" devices="tripinfo_MD_Lup_straight.5 routing_MD_Lup_straight.5" vType="car" speedFactor="0.88" vaporized=""/>
    <tripinfo id="MD_Lup_straight.6" depart="26.00" departLane="Lup_0" departPos="5.10" departSpeed="0.00" departDelay="1.79" arrival="50.00" arrivalLane="northbound_lanes_0" arrivalPos="122.67" arrivalSpeed="14.85" duration="24.00" routeLength="311.00" waitingTime="0.00" waitingCount="0" stopTime="0.00" timeLoss="4.05" rerouteNo="0" devices="tripinfo_MD_Lup_straight.6 routing_MD_Lup_straight.6" vType="car" speedFactor="0.94" vaporized=""/>
    <tripinfo id="MD_Lup_straight.7" depart="29.00" departLane="Lup_0" departPos="5.10" departSpeed="0.00" departDelay="0.76" arrival="55.00" arrivalLane="northbound_lanes_0" arrivalPos="122.67" arrivalSpeed="14.12" duration="26.00" routeLength="311.00" waitingTime="0.00" waitingCount="0" stopTime="0.00" timeLoss="4.77" rerouteNo="0" devices="tripinfo_MD_Lup_straight.7 routing_MD_Lup_straight.7" vType="car" speedFactor="0.89" vaporized=""/>
    <tripinfo id="MD_Sbound_straight.5" depart="31.00" departLane="southbound_lanes_0" departPos="5.10" departSpeed="0.00" departDelay="0.75" arrival="58.00" arrivalLane="Ldown_0" arrivalPos="161.93" arrivalSpeed="13.36" duration="27.00" routeLength="305.87" waitingTime="0.00" waitingCount="0" stopTime="0.00" timeLoss="3.91" rerouteNo="0" devices="tripinfo_MD_Sbound_straight.5 routing_MD_Sbound_straight.5" vType="car" speedFactor="0.83" vaporized=""/>
    <tripinfo id="MD_Rup_major.0" depart="0.00" departLane="Rup_0" departPos="5.10" departSpeed="0.00" departDelay="0.00" arrival="59.00" arrivalLane="northbound_lanes_0" arrivalPos="122.67" arrivalSpeed="16.87" duration="59.00" routeLength="637.97" waitingTime="0.00" waitingCount="0" stopTime="0.00" timeLoss="6.36" rerouteNo="0" devices="tripinfo_MD_Rup_major.0 routing_MD_Rup_major.0" vType="car" speedFactor="1.03" vaporized=""/>
    <tripinfo id="MD_Sbound_straight.6" depart="37.00" departLane="southbound_lanes_0" departPos="5.10" departSpeed="0.00" departDelay="0.70" arrival="61.00" arrivalLane="Ldown_0" arrivalPos="161.93" arrivalSpeed="14.55" duration="24.00" routeLength="305.87" waitingTime="0.00" waitingCount="0" stopTime="0.00" timeLoss="4.15" rerouteNo="0" devices="tripinfo_MD_Sbound_straight.6 routing_MD_Sbound_straight.6" vType="car" speedFactor="0.93" vaporized=""/>
    <tripinfo id="MD_Sbound_straight.7" depart="43.00" departLane="southbound_lanes_0" departPos="5.10" departSpeed="0.00" departDelay="0.65" arrival="66.00" arrivalLane="Ldown_0" arrivalPos="161.93" arrivalSpeed="16.15" duration="23.00" routeLength="305.87" waitingTime="0.00" waitingCount="0" stopTime="0.00" timeLoss="4.47" rerouteNo="0" devices="tripinfo_MD_Sbound_straight.7 routing_MD_Sbound_straight.7" vType="car" speedFactor="1.01" vaporized=""/>
    <tripinfo id="MD_Rup_major.2" depart="14.00" departLane="Rup_0" departPos="5.10" departSpeed="0.00" departDelay="0.15" arrival="71.00" arrivalLane="northbound_lanes_0" arrivalPos="122.67" arrivalSpeed="16.72" duration="57.00" routeLength="637.97" waitingTime="0.00" waitingCount="0" stopTime="0.00" timeLoss="5.60" rerouteNo="0" devices="tripinfo_MD_Rup_major.2 routing_MD_Rup_major.2" vType="car" speedFactor="1.05" vaporized=""/>
    <tripinfo id="MD_Sbound_straight.8" depart="49.00" departLane="southbound_lanes_0" departPos="5.10" departSpeed="0.00" departDelay="0.60" arrival="72.00" arrivalLane="Ldown_0" arrivalPos="161.93" arrivalSpeed="15.76" duration="23.00" routeLength="305.87" waitingTime="0.00" waitingCount="0" stopTime="0.00" timeLoss="4.10" rerouteNo="0" devices="tripinfo_MD_Sbound_straight.8 routing_MD_Sbound_straight.8" vType="car" speedFactor="0.97" vaporized=""/>
    <tripinfo id="MD_Rup_major.1" depart="7.00" departLane="Rup_0" departPos="5.10" departSpeed="0.00" departDelay="0.08" arrival="74.00" arrivalLane="northbound_lanes_0" arrivalPos="122.67" arrivalSpeed="14.61" duration="67.00" routeLength="637.97" waitingTime="0.00" waitingCount="0" stopTime="0.00" timeLoss="9.80" rerouteNo="0" devices="tripinfo_MD_Rup_major.1 routing_MD_Rup_major.1" vType="car" speedFactor="0.94" vaporized=""/>
    <tripinfo id="MD_Lup_turn.0" depart="3.00" departLane="Lup_0" departPos="5.10" departSpeed="0.00" departDelay="3.00" arrival="75.00" arrivalLane="Rdown_0" arrivalPos="493.55" arrivalSpeed="9.18" duration="72.00" routeLength="663.62" waitingTime="0.00" waitingCount="0" stopTime="0.00" timeLoss="12.10" rerouteNo="0" devices="tripinfo_MD_Lup_turn.0 routing_MD_Lup_turn.0" vType="car" speedFactor="0.94" vaporized=""/>
    <tripinfo id="MD_Sbound_straight.9" depart="55.00" departLane="southbound_lanes_0" departPos="5.10" departSpeed="0.00" departDelay="0.55" arrival="78.00" arrivalLane="Ldown_0" arrivalPos="161.93" arrivalSpeed="16.05" duration="23.00" routeLength="305.87" waitingTime="0.00" waitingCount="0" stopTime="0.00" timeLoss="4.60" rerouteNo="0" devices="tripinfo_MD_Sbound_straight.9 routing_MD_Sbound_straight.9" vType="car" speedFactor="1.03" vaporized=""/>
    <tripinfo id="MD_Rup_major.3" depart="21.00" departLane="Rup_0" departPos="5.10" departSpeed="0.00" departDelay="0.23" arrival="83.00" arrivalLane="northbound_lanes_0" arrivalPos="122.67" arrivalSpeed="15.28" duration="62.00" routeLength="637.97" waitingTime="0.00" waitingCount="0" stopTime="0.00" timeLoss="5.49" rerouteNo="0" devices="tripinfo_MD_Rup_major.3 routing_MD_Rup_major.3" vType="car" speedFactor="0.94" vaporized=""/>
    <tripinfo id="MD_Sbound_straight.10" depart="61.00" departLane="southbound_lanes_0" departPos="5.10" departSpeed="0.00" departDelay="0.50" arrival="83.00" arrivalLane="Ldown_0" arrivalPos="161.93" arrivalSpeed="17.35" duration="22.00" routeLength="305.87" waitingTime="0.00" waitingCount="0" stopTime="0.00" timeLoss="4.90" rerouteNo="0" devices="tripinfo_MD_Sbound_straight.10 routing_MD_Sbound_straight.10" vType="car" speedFactor="1.09" vaporized=""/>
    <tripinfo id="MD_Lup_turn.1" depart="20.00" departLane="Lup_0" departPos="5.10" departSpeed="0.00" departDelay="3.86" arrival="86.00" arrivalLane="Rdown_0" arrivalPos="493.55" arrivalSpeed="10.57" duration="66.00" routeLength="663.62" waitingTime="0.00" waitingCount="0" stopTime="0.00" timeLoss="9.22" rerouteNo="0" devices="tripinfo_MD_Lup_turn.1 routing_MD_Lup_turn.1" vType="car" speedFactor="0.99" vaporized=""/>
    <tripinfo id="MD_Rup_major.4" depart="28.00" departLane="Rup_0" departPos="5.10" departSpeed="0.00" departDelay="0.31" arrival="87.00" arrivalLane="northbound_lanes_0" arrivalPos="122.67" arrivalSpeed="15.86" duration="59.00" routeLength="637.97" waitingTime="0.00" waitingCount="0" stopTime="0.00" timeLoss="5.56" rerouteNo="0" devices="tripinfo_MD_Rup_major.4 routing_MD_Rup_major.4" vType="car" speedFactor="1.01" vaporized=""/>
    <tripinfo id="MD_Rup_minor.0" depart="3.00" departLane="Rup_0" departPos="5.10" departSpeed="0.00" departDelay="3.00" arrival="90.00" arrivalLane="Ldown_1" arrivalPos="161.93" arrivalSpeed="13.04" duration="87.00" routeLength="677.17" waitingTime="7.00" waitingCount="1" stopTime="0.00" timeLoss="18.81" rerouteNo="0" devices="tripinfo_MD_Rup_minor.0 routing_MD_Rup_minor.0" vType="car" speedFactor="0.83" vaporized=""/>
    <tripinfo id="MD_Sbound_straight.11" depart="67.00" departLane="southbound_lanes_0" departPos="5.10" departSpeed="0.00" departDelay="0.45" arrival="92.00" arrivalLane="Ldown_0" arrivalPos="161.93" arrivalSpeed="13.92" duration="25.00" routeLength="305.87" waitingTime="0.00" waitingCount="0" stopTime="0.00" timeLoss="3.37" rerouteNo="0" devices="tripinfo_MD_Sbound_straight.11 routing_MD_Sbound_straight.11" vType="car" speedFactor="0.85" vaporized=""/>
    <tripinfo id="MD_Rup_major.6" depart="42.00" departLane="Rup_0" departPos="5.10" departSpeed="0.00" departDelay="0.46" arrival="94.00" arrivalLane="northbound_lanes_1" arrivalPos="122.67" arrivalSpeed="18.88" duration="52.00" routeLength="641.26" waitingTime="0.00" waitingCount="0" stopTime="0.00" timeLoss="5.58" rerouteNo="0" devices="tripinfo_MD_Rup_major.6 routing_MD_Rup_major.6" vType="car" speedFactor="1.15" vaporized=""/>
    <tripinfo id="MD_Rup_minor.1" depart="31.00" departLane="Rup_0" departPos="5.10" departSpeed="0.00" departDelay="3.31" arrival="95.00" arrivalLane="Ldown_1" arrivalPos="161.93" arrivalSpeed="15.16" duration="64.00" routeLength="677.17" waitingTime="0.00" waitingCount="0" stopTime="0.00" timeLoss="6.09" rerouteNo="0" devices="tripinfo_MD_Rup_minor.1 routing_MD_Rup_minor.1" vType="car" speedFactor="0.97" vaporized=""/>
    <tripinfo id="MD_Sbound_straight.12" depart="73.00" departLane="southbound_lanes_0" departPos="5.10" departSpeed="0.00" departDelay="0.40" arrival="95.00" arrivalLane="Ldown_0" arrivalPos="161.93" arrivalSpeed="17.19" duration="22.00" routeLength="305.87" waitingTime="0.00" waitingCount="0" stopTime="0.00" timeLoss="4.38" rerouteNo="0" devices="tripinfo_MD_Sbound_straight.12 routing_MD_Sbound_straight.12" vType="car" speedFactor="1.10" vaporized=""/>
    <tripinfo id="MD_Rup_major.5" depart="35.00" departLane="Rup_0" departPos="5.10" departSpeed="0.00" departDelay="0.39" arrival="97.00" arrivalLane="northbound_lanes_0" arrivalPos="122.67" arrivalSpeed="14.83" duration="62.00" routeLength="637.97" waitingTime="0.00" waitingCount="0" stopTime="0.00" timeLoss="5.84" rerouteNo="0" devices="tripinfo_MD_Rup_major.5 routing_MD_Rup_major.5" vType="car" speedFactor="0.95" vaporized=""/>
    <tripinfo id="MD_Sbound_turn.0" depart="3.00" departLane="southbound_lanes_0" departPos="5.10" departSpeed="0.00" departDelay="3.00" arrival="99.00" arrivalLane="Rdown_0" arrivalPos="493.55" arrivalSpeed="11.75" duration="96.00" routeLength="643.45" waitingTime="33.00" waitingCount="1" stopTime="0.00" timeLoss="45.90" rerouteNo="0" devices="tripinfo_MD_Sbound_turn.0 routing_MD_Sbound_turn.0" vType="car" speedFactor="1.08" vaporized=""/>
    <tripinfo id="MD_Sbound_straight.13" depart="79.00" departLane="southbound_lanes_0" departPos="5.10" departSpeed="0.00" departDelay="0.35" arrival="100.00" arrivalLane="Ldown_0" arrivalPos="161.93" arrivalSpeed="18.36" duration="21.00" routeLength="305.87" waitingTime="0.00" waitingCount="0" stopTime="0.00" timeLoss="4.66" rerouteNo="0" devices="tripinfo_MD_Sbound_straight.13 routing_MD_Sbound_straight.13" vType="car" speedFactor="1.14" vaporized=""/>
    <tripinfo id="MD_Sbound_turn.1" depart="28.00" departLane="southbound_lanes_0" departPos="5.10" departSpeed="0.00" departDelay="3.84" arrival="104.00" arrivalLane="Rdown_0" arrivalPos="493.55" arrivalSpeed="10.26" duration="76.00" routeLength="643.45" waitingTime="8.00" waitingCount="1" stopTime="0.00" timeLoss="22.72" rerouteNo="0" devices="tripinfo_MD_Sbound_turn.1 routing_MD_Sbound_turn.1" vType="car" speedFactor="1.02" vaporized=""/>
    <tripinfo id="MD_Lup_straight.9" depart="39.00" departLane="Lup_0" departPos="5.10" departSpeed="0.00" departDelay="2.69" arrival="106.00" arrivalLane="northbound_lanes_0" arrivalPos="122.67" arrivalSpeed="18.73" duration="67.00" routeLength="311.00" waitingTime="38.00" waitingCount="1" stopTime="0.00" timeLoss="50.08" rerouteNo="0" devices="tripinfo_MD_Lup_straight.9 routing_MD_Lup_straight.9" vType="car" speedFactor="1.13" vaporized=""/>
    <tripinfo id="MD_Lup_straight.8" depart="33.00" departLane="Lup_0" departPos="5.10" departSpeed="0.00" departDelay="0.72" arrival="108.00" arrivalLane="northbound_lanes_0" arrivalPos="122.67" arrivalSpeed="13.97" duration="75.00" routeLength="311.00" waitingTime="43.00" waitingCount="1" stopTime="0.00" timeLoss="52.88" rerouteNo="0" devices="tripinfo_MD_Lup_straight.8 routing_MD_Lup_straight.8" vType="car" speedFactor="0.87" vaporized=""/>
    <tripinfo id="MD_Lup_straight.10" depart="42.00" departLane="Lup_0" departPos="5.10" departSpeed="0.00" departDelay="1.65" arrival="108.00" arrivalLane="northbound_lanes_1" arrivalPos="122.67" arrivalSpeed="19.60" duration="66.00" routeLength="311.00" waitingTime="35.00" waitingCount="1" stopTime="0.00" timeLoss="49.24" rerouteNo="0" devices="tripinfo_MD_Lup_straight.10 routing_MD_Lup_straight.10" vType="car" speedFactor="1.18" vaporized=""/>
    <tripinfo id="MD_Sbound_turn.2" depart="52.00" departLane="southbound_lanes_0" departPos="5.10" departSpeed="0.00" departDelay="3.68" arrival="108.00" arrivalLane="Rdown_0" arrivalPos="493.55" arrivalSpeed="12.87" duration="56.00" routeLength="643.45" waitingTime="0.00" waitingCount="0" stopTime="0.00" timeLoss="9.86" rerouteNo="0" devices="tripinfo_MD_Sbound_turn.2 routing_MD_Sbound_turn.2" vType="car" speedFactor="1.18" vaporized=""/>
    <tripinfo id="MD_Sbound_straight.14" depart="85.00" departLane="southbound_lanes_0" departPos="5.10" departSpeed="0.00" departDelay="0.30" arrival="108.00" arrivalLane="Ldown_0" arrivalPos="161.93" arrivalSpeed="15.92" duration="23.00" routeLength="305.87" waitingTime="0.00" waitingCount="0" stopTime="0.00" timeLoss="3.95" rerouteNo="0" devices="tripinfo_MD_Sbound_straight.14 routing_MD_Sbound_straight.14" vType="car" speedFactor="0.99" vaporized=""/>
    <tripinfo id="MD_Lup_straight.12" depart="49.00" departLane="Lup_0" departPos="5.10" departSpeed="0.00" departDelay="0.58" arrival="110.00" arrivalLane="northbound_lanes_1" arrivalPos="122.67" arrivalSpeed="16.21" duration="61.00" routeLength="311.00" waitingTime="31.00" waitingCount="1" stopTime="0.00" timeLoss="41.91" rerouteNo="0" devices="tripinfo_MD_Lup_straight.12 routing_MD_Lup_straight.12" vType="car" speedFactor="0.99" vaporized=""/>
    <tripinfo id="MD_Lup_straight.11" depart="45.00" departLane="Lup_0" departPos="5.10" departSpeed="0.00" departDelay="0.62" arrival="111.00" arrivalLane="northbound_lanes_0" arrivalPos="122.67" arrivalSpeed="19.27" duration="66.00" routeLength="311.00" waitingTime="35.00" waitingCount="1" stopTime="0.00" timeLoss="49.44" rerouteNo="0" devices="tripinfo_MD_Lup_straight.11 routing_MD_Lup_straight.11" vType="car" speedFactor="1.17" vaporized=""/>
    <tripinfo id="MD_Lup_straight.13" depart="55.00" departLane="Lup_0" departPos="5.10" departSpeed="0.00" departDelay="2.55" arrival="112.00" arrivalLane="northbound_lanes_1" arrivalPos="122.67" arrivalSpeed="14.11" duration="57.00" routeLength="311.00" waitingTime="26.00" waitingCount="1" stopTime="0.00" timeLoss="36.23" rerouteNo="0" devices="tripinfo_MD_Lup_straight.13 routing_MD_Lup_straight.13" vType="car" speedFactor="0.90" vaporized=""/>
    <tripinfo id="MD_Lup_straight.15" depart="61.00" departLane="Lup_0" departPos="5.10" departSpeed="0.00" departDelay="0.48" arrival="114.00" arrivalLane="northbound_lanes_1" arrivalPos="122.67" arrivalSpeed="16.56" duration="53.00" routeLength="311.00" waitingTime="23.00" waitingCount="1" stopTime="0.00" timeLoss="34.55" rerouteNo="0" devices="tripinfo_MD_Lup_straight.15 routing_MD_Lup_straight.15" vType="car" speedFactor="1.04" vaporized=""/>
    <tripinfo id="MD_Lup_straight.14" depart="58.00" departLane="Lup_0" departPos="5.10" departSpeed="0.00" departDelay="1.51" arrival="116.00" arrivalLane="northbound_lanes_0" arrivalPos="122.67" arrivalSpeed="16.27" duration="58.00" routeLength="311.00" waitingTime="24.00" waitingCount="1" stopTime="0.00" timeLoss="39.57" rerouteNo="0" devices="tripinfo_MD_Lup_straight.14 routing_MD_Lup_straight.14" vType="car" speedFactor="1.04" vaporized=""/>
    <tripinfo id="MD_Sbound_straight.15" depart="91.00" departLane="southbound_lanes_0" departPos="5.10" departSpeed="0.00" departDelay="0.25" arrival="116.00" arrivalLane="Ldown_0" arrivalPos="161.93" arrivalSpeed="14.79" duration="25.00" routeLength="305.87" waitingTime="0.00" waitingCount="0" stopTime="0.00" timeLoss="4.36" rerouteNo="0" devices="tripinfo_MD_Sbound_straight.15 routing_MD_Sbound_straight.15" vType="car" speedFactor="0.91" vaporized=""/>
    <tripinfo id="MD_Lup_straight.17" depart="71.00" departLane="Lup_0" departPos="5.10" departSpeed="0.00" departDelay="2.41" arrival="117.00" arrivalLane="northbound_lanes_1" arrivalPos="122.67" arrivalSpeed="12.97" duration="46.00" routeLength="311.00" waitingTime="11.00" waitingCount="1" stopTime="0.00" timeLoss="23.60" rerouteNo="0" devices="tripinfo_MD_Lup_straight.17 routing_MD_Lup_straight.17" vType="car" speedFactor="0.85" vaporized=""/>
    <tripinfo id="MD_Lup_straight.18" depart="74.00" departLane="Lup_0" departPos="5.10" departSpeed="0.00" departDelay="1.37" arrival="118.00" arrivalLane="northbound_lanes_1" arrivalPos="122.67" arrivalSpeed="16.33" duration="44.00" routeLength="311.00" waitingTime="10.00" waitingCount="1" stopTime="0.00" timeLoss="25.60" rerouteNo="0" devices="tripinfo_MD_Lup_straight.18 routing_MD_Lup_straight.18" vType="car" speedFactor="1.02" vaporized=""/>
    <tripinfo id="MD_Lup_straight.16" depart="65.00" departLane="Lup_0" departPos="5.10" departSpeed="0.00" departDelay="0.44" arrival="119.00" arrivalLane="northbound_lanes_0" arrivalPos="122.67" arrivalSpeed="14.48" duration="54.00" routeLength="311.00" waitingTime="20.00" waitingCount="1" stopTime="0.00" timeLoss="32.37" rerouteNo="0" devices="tripinfo_MD_Lup_straight.16 routing_MD_Lup_straight.16" vType="car" speedFactor="0.90" vaporized=""/>
    <tripinfo id="MD_Lup_straight.20" depart="81.00" departLane="Lup_0" departPos="5.10" departSpeed="0.00" departDelay="0.30" arrival="120.00" arrivalLane="northbound_lanes_1" arrivalPos="122.67" arrivalSpeed="16.57" duration="39.00" routeLength="311.00" waitingTime="4.00" waitingCount="1" stopTime="0.00" timeLoss="20.44" rerouteNo="0" devices="tripinfo_MD_Lup_straight.20 routing_MD_Lup_straight.20" vType="car" speedFactor="1.02" vaporized=""/>
    <tripinfo id="MD_Sbound_straight.16" depart="97.00" departLane="southbound_lanes_0" departPos="5.10" departSpeed="0.00" departDelay="0.20" arrival="120.00" arrivalLane="Ldown_0" arrivalPos="161.93" arrivalSpeed="16.05" duration="23.00" routeLength="305.87" waitingTime="0.00" waitingCount="0" stopTime="0.00" timeLoss="4.65" rerouteNo="0" devices="tripinfo_MD_Sbound_straight.16 routing_MD_Sbound_straight.16" vType="car" speedFactor="1.02" vaporized=""/>
    <tripinfo id="MD_Lup_straight.21" depart="87.00" departLane="Lup_0" departPos="5.10" departSpeed="0.00" departDelay="2.27" arrival="122.00" arrivalLane="northbound_lanes_1" arrivalPos="122.67" arrivalSpeed="16.60" duration="35.00" routeLength="311.00" waitingTime="0.00" waitingCount="0" stopTime="0.00" timeLoss="15.90" rerouteNo="0" devices="tripinfo_MD_Lup_straight.21 routing_MD_Lup_straight.21" vType="car" speedFactor="1.02" vaporized=""/>
    <tripinfo id="MD_Lup_straight.19" depart="77.00" departLane="Lup_0" departPos="5.10" departSpeed="0.00" departDelay="0.34" arrival="124.00" arrivalLane="northbound_lanes_0" arrivalPos="122.67" arrivalSpeed="16.41" duration="47.00" routeLength="311.00" waitingTime="11.00" waitingCount="1" stopTime="0.00" timeLoss="27.33" rerouteNo="0" devices="tripinfo_MD_Lup_straight.19 routing_MD_Lup_straight.19" vType="car" speedFactor="1.00" vaporized=""/>
    <tripinfo id="MD_Lup_straight.23" depart="93.00" departLane="Lup_0" departPos="5.10" departSpeed="0.00" departDelay="0.20" arrival="124.00" arrivalLane="northbound_lanes_1" arrivalPos="122.67" arrivalSpeed="14.24" duration="31.00" routeLength="311.00" waitingTime="0.00" waitingCount="0" stopTime="0.00" timeLoss="9.88" rerouteNo="0" devices="tripinfo_MD_Lup_straight.23 routing_MD_Lup_straight.23" vType="car" speedFactor="0.91" vaporized=""/>
    <tripinfo id="MD_Lup_straight.24" depart="97.00" departLane="Lup_0" departPos="5.10" departSpeed="0.00" departDelay="0.16" arrival="125.00" arrivalLane="northbound_lanes_1" arrivalPos="122.67" arrivalSpeed="16.53" duration="28.00" routeLength="311.00" waitingTime="0.00" waitingCount="0" stopTime="0.00" timeLoss="9.89" rerouteNo="0" devices="tripinfo_MD_Lup_straight.24 routing_MD_Lup_straight.24" vType="car" speedFactor="1.04" vaporized=""/>
    <tripinfo id="MD_Lup_straight.25" depart="103.00" departLane="Lup_0" departPos="5.10" departSpeed="0.00" departDelay="2.13" arrival="127.00" arrivalLane="northbound_lanes_1" arrivalPos="122.67" arrivalSpeed="17.51" duration="24.00" routeLength="311.00" waitingTime="0.00" waitingCount="0" stopTime="0.00" timeLoss="5.77" rerouteNo="0" devices="tripinfo_MD_Lup_straight.25 routing_MD_Lup_straight.25" vType="car" speedFactor="1.06" vaporized=""/>
    <tripinfo id="MD_Sbound_straight.17" depart="103.00" departLane="southbound_lanes_0" departPos="5.10" departSpeed="0.00" departDelay="0.15" arrival="127.00" arrivalLane="Ldown_0" arrivalPos="161.93" arrivalSpeed="15.85" duration="24.00" routeLength="305.87" waitingTime="0.00" waitingCount="0" stopTime="0.00" timeLoss="4.18" rerouteNo="0" devices="tripinfo_MD_Sbound_straight.17 routing_MD_Sbound_straight.17" vType="car" speedFactor="0.96" vaporized=""/>
    <tripinfo id="MD_Lup_straight.22" depart="90.00" departLane="Lup_0" departPos="5.10" departSpeed="0.00" departDelay="1.23" arrival="129.00" arrivalLane="northbound_lanes_0" arrivalPos="122.67" arrivalSpeed="15.06" duration="39.00" routeLength="311.00" waitingTime="2.00" waitingCount="1" stopTime="0.00" timeLoss="18.87" rerouteNo="0" devices="tripinfo_MD_Lup_straight.22 routing_MD_Lup_straight.22" vType="car" speedFactor="0.94" vaporized=""/>
    <tripinfo id="MD_Lup_straight.26" depart="106.00" departLane="Lup_0" departPos="5.10" departSpeed="0.00" departDelay="1.09" arrival="129.00" arrivalLane="northbound_lanes_1" arrivalPos="122.67" arrivalSpeed="16.76" duration="23.00" routeLength="311.00" waitingTime="0.00" waitingCount="0" stopTime="0.00" timeLoss="4.66" rerouteNo="0" devices="tripinfo_MD_Lup_straight.26 routing_MD_Lup_straight.26" vType="car" speedFactor="1.03" vaporized=""/>
    <tripinfo id="MD_Sbound_straight.18" depart="109.00" departLane="southbound_lanes_0" departPos="5.10" departSpeed="0.00" departDelay="0.10" arrival="132.00" arrivalLane="Ldown_0" arrivalPos="161.93" arrivalSpeed="16.62" duration="23.00" routeLength="305.87" waitingTime="0.00" waitingCount="0" stopTime="0.00" timeLoss="4.63" rerouteNo="0" devices="tripinfo_MD_Sbound_straight.18 routing_MD_Sbound_straight.18" vType="car" speedFactor="1.01" vaporized=""/>
    <tripinfo id="MD_Lup_straight.27" depart="109.00" departLane="Lup_0" departPos="5.10" departSpeed="0.00" departDelay="0.06" arrival="133.00" arrivalLane="northbound_lanes_0" arrivalPos="122.67" arrivalSpeed="15.43" duration="24.00" routeLength="311.00" waitingTime="0.00" waitingCount="0" stopTime="0.00" timeLoss="4.57" rerouteNo="0" devices="tripinfo_MD_Lup_straight.27 routing_MD_Lup_straight.27" vType="car" speedFactor="0.98" vaporized=""/>
    <tripinfo id="MD_Lup_straight.28" depart="113.00" departLane="Lup_0" departPos="5.10" departSpeed="0.00" departDelay="0.02" arrival="136.00" arrivalLane="northbound_lanes_0" arrivalPos="122.67" arrivalSpeed="16.23" duration="23.00" routeLength="311.00" waitingTime="0.00" waitingCount="0" stopTime="0.00" timeLoss="3.79" rerouteNo="0" devices="tripinfo_MD_Lup_straight.28 routing_MD_Lup_straight.28" vType="car" speedFactor="1.00" vaporized=""/>
    <tripinfo id="MD_Sbound_straight.19" depart="115.00" departLane="southbound_lanes_0" departPos="5.10" departSpeed="0.00" departDelay="0.05" arrival="139.00" arrivalLane="Ldown_0" arrivalPos="161.93" arrivalSpeed="15.26" duration="24.00" routeLength="305.87" waitingTime="0.00" waitingCount="0" stopTime="0.00" timeLoss="4.57" rerouteNo="0" devices="tripinfo_MD_Sbound_straight.19 routing_MD_Sbound_straight.19" vType="car" speedFactor="0.97" vaporized=""/>