<?xml version="1.0" encoding="UTF-8"?>

<!-- generated on 2026-05-25T01:51:34.282030+08:00 by Eclipse SUMO GUI 1.26.0
<sumoConfiguration xmlns:xsi="http://www.w3.org/2001/XMLSchema-instance" xsi:noNamespaceSchemaLocation="http://sumo.dlr.de/xsd/sumoConfiguration.xsd">

    <input>
        <net-file value="C:\Users\mmmma\TrafficProject\baseline_cases\afternoon_baseline_case\initial8_network.net.xml"/>
        <route-files value="C:\Users\mmmma\TrafficProject\baseline_cases\afternoon_baseline_case\routes_afternoon.rou.xml"/>
        <additional-files value="C:\Users\mmmma\TrafficProject\baseline_cases\afternoon_baseline_case\detectors.add.xml"/>
    </input>

    <output>
        <tripinfo-output value="C:\Users\mmmma\TrafficProject\baseline_cases\afternoon_baseline_case\outputs_afternoon/tripinfo.xml"/>
        <edgedata-output value="C:\Users\mmmma\TrafficProject\baseline_cases\afternoon_baseline_case\outputs_afternoon/edge_data.xml"/>
    </output>

    <time>
        <begin value="0"/>
        <end value="3600"/>
    </time>

    <gui_only>
        <start value="true"/>
    </gui_only>

</sumoConfiguration>
-->

<detector xmlns:xsi="http://www.w3.org/2001/XMLSchema-instance" xsi:noNamespaceSchemaLocation="http://sumo.dlr.de/xsd/det_e2_file.xsd">
   <interval begin="0.00" end="60.00" id="queue_Lup_0" sampledSeconds="107.01" nVehEntered="12" nVehLeft="10" nVehSeen="12" meanSpeed="5.09" meanTimeLoss="6.04" meanOccupancy="13.00" maxOccupancy="33.33" meanMaxJamLengthInVehicles="0.87" meanMaxJamLengthInMeters="4.41" maxJamLengthInVehicles="3" maxJamLengthInMeters="17.32" jamLengthInVehiclesSum="52" jamLengthInMetersSum="264.59" meanHaltingDuration="14.00" maxHaltingDuration="24.00" haltingDurationSum="56.00" meanIntervalHaltingDuration="14.00" maxIntervalHaltingDuration="24.00" intervalHaltingDurationSum="56.00" startedHalts="4.00" meanVehicleNumber="1.95" maxVehicleNumber="5" />
   <interval begin="0.00" end="60.00" id="queue_Lup_1" sampledSeconds="55.95" nVehEntered="5" nVehLeft="5" nVehSeen="5" meanSpeed="3.09" meanTimeLoss="9.13" meanOccupancy="5.87" maxOccupancy="20.52" meanMaxJamLengthInVehicles="0.50" meanMaxJamLengthInMeters="2.26" maxJamLengthInVehicles="2" maxJamLengthInMeters="13.70" jamLengthInVehiclesSum="30" jamLengthInMetersSum="135.79" meanHaltingDuration="11.00" maxHaltingDuration="17.00" haltingDurationSum="33.00" meanIntervalHaltingDuration="11.00" maxIntervalHaltingDuration="17.00" intervalHaltingDurationSum="33.00" startedHalts="3.00" meanVehicleNumber="0.98" maxVehicleNumber="3" />
   <interval begin="0.00" end="60.00" id="queue_Rup_0" sampledSeconds="8.86" nVehEntered="1" nVehLeft="0" nVehSeen="1" meanSpeed="8.47" meanTimeLoss="0.74" meanOccupancy="0.83" maxOccupancy="5.56" meanMaxJamLengthInVehicles="0.00" meanMaxJamLengthInMeters="0.00" maxJamLengthInVehicles="0" maxJamLengthInMeters="0.00" jamLengthInVehiclesSum="0" jamLengthInMetersSum="0.00" meanHaltingDuration="0.00" maxHaltingDuration="0.00" haltingDurationSum="0.00" meanIntervalHaltingDuration="0.00" maxIntervalHaltingDuration="0.00" intervalHaltingDurationSum="0.00" startedHalts="0.00" meanVehicleNumber="0.15" maxVehicleNumber="1" />
   <interval begin="0.00" end="60.00" id="queue_Rup_1" sampledSeconds="19.79" nVehEntered="2" nVehLeft="1" nVehSeen="2" meanSpeed="9.41" meanTimeLoss="1.83" meanOccupancy="1.78" maxOccupancy="5.56" meanMaxJamLengthInVehicles="0.00" meanMaxJamLengthInMeters="0.00" maxJamLengthInVehicles="0" maxJamLengthInMeters="0.00" jamLengthInVehiclesSum="0" jamLengthInMetersSum="0.00" meanHaltingDuration="1.00" maxHaltingDuration="1.00" haltingDurationSum="1.00" meanIntervalHaltingDuration="1.00" maxIntervalHaltingDuration="1.00" intervalHaltingDurationSum="1.00" startedHalts="1.00" meanVehicleNumber="0.35" maxVehicleNumber="1" />
   <interval begin="0.00" end="60.00" id="queue_Sbound_0" sampledSeconds="61.24" nVehEntered="15" nVehLeft="14" nVehSeen="15" meanSpeed="14.95" meanTimeLoss="0.26" meanOccupancy="8.00" maxOccupancy="16.67" meanMaxJamLengthInVehicles="0.00" meanMaxJamLengthInMeters="0.00" maxJamLengthInVehicles="0" maxJamLengthInMeters="0.00" jamLengthInVehiclesSum="0" jamLengthInMetersSum="0.00" meanHaltingDuration="0.00" maxHaltingDuration="0.00" haltingDurationSum="0.00" meanIntervalHaltingDuration="0.00" maxIntervalHaltingDuration="0.00" intervalHaltingDurationSum="0.00" startedHalts="0.00" meanVehicleNumber="1.27" maxVehicleNumber="2" />
   <interval begin="0.00" end="60.00" id="queue_Sbound_1" sampledSeconds="110.01" nVehEntered="4" nVehLeft="0" nVehSeen="4" meanSpeed="1.91" meanTimeLoss="24.62" meanOccupancy="10.93" maxOccupancy="27.17" meanMaxJamLengthInVehicles="1.45" meanMaxJamLengthInMeters="6.54" maxJamLengthInVehicles="4" maxJamLengthInMeters="23.95" jamLengthInVehiclesSum="87" jamLengthInMetersSum="392.44" meanHaltingDuration="22.75" maxHaltingDuration="43.00" haltingDurationSum="91.00" meanIntervalHaltingDuration="22.75" maxIntervalHaltingDuration="43.00" intervalHaltingDurationSum="91.00" startedHalts="4.00" meanVehicleNumber="1.87" maxVehicleNumber="4" />
   <interval begin="60.00" end="120.00" id="queue_Lup_0" sampledSeconds="112.66" nVehEntered="13" nVehLeft="10" nVehSeen="15" meanSpeed="6.14" meanTimeLoss="4.62" meanOccupancy="13.56" maxOccupancy="34.69" meanMaxJamLengthInVehicles="0.92" meanMaxJamLengthInMeters="4.64" maxJamLengthInVehicles="4" maxJamLengthInMeters="24.95" jamLengthInVehiclesSum="55" jamLengthInMetersSum="278.21" meanHaltingDuration="14.75" maxHaltingDuration="27.00" haltingDurationSum="59.00" meanIntervalHaltingDuration="14.75" maxIntervalHaltingDuration="27.00" intervalHaltingDurationSum="59.00" startedHalts="4.00" meanVehicleNumber="2.08" maxVehicleNumber="5" />
   <interval begin="60.00" end="120.00" id="queue_Lup_1" sampledSeconds="51.00" nVehEntered="3" nVehLeft="0" nVehSeen="3" meanSpeed="1.40" meanTimeLoss="15.53" meanOccupancy="5.28" maxOccupancy="20.52" meanMaxJamLengthInVehicles="0.65" meanMaxJamLengthInMeters="2.89" maxJamLengthInVehicles="3" maxJamLengthInMeters="17.48" jamLengthInVehiclesSum="39" jamLengthInMetersSum="173.42" meanHaltingDuration="14.00" maxHaltingDuration="24.00" haltingDurationSum="42.00" meanIntervalHaltingDuration="14.00" maxIntervalHaltingDuration="24.00" intervalHaltingDurationSum="42.00" startedHalts="3.00" meanVehicleNumber="0.85" maxVehicleNumber="3" />
   <interval begin="60.00" end="120.00" id="queue_Rup_0" sampledSeconds="10.32" nVehEntered="1" nVehLeft="2" nVehSeen="2" meanSpeed="11.14" meanTimeLoss="0.25" meanOccupancy="0.84" maxOccupancy="5.56" meanMaxJamLengthInVehicles="0.00" meanMaxJamLengthInMeters="0.00" maxJamLengthInVehicles="0" maxJamLengthInMeters="0.00" jamLengthInVehiclesSum="0" jamLengthInMetersSum="0.00" meanHaltingDuration="0.00" maxHaltingDuration="0.00" haltingDurationSum="0.00" meanIntervalHaltingDuration="0.00" maxIntervalHaltingDuration="0.00" intervalHaltingDurationSum="0.00" startedHalts="0.00" meanVehicleNumber="0.20" maxVehicleNumber="1" />
   <interval begin="60.00" end="120.00" id="queue_Rup_1" sampledSeconds="270.55" nVehEntered="7" nVehLeft="0" nVehSeen="8" meanSpeed="1.46" meanTimeLoss="29.43" meanOccupancy="24.01" maxOccupancy="43.17" meanMaxJamLengthInVehicles="3.67" meanMaxJamLengthInMeters="23.86" maxJamLengthInVehicles="7" maxJamLengthInMeters="48.86" jamLengthInVehiclesSum="220" jamLengthInMetersSum="1431.56" meanHaltingDuration="32.43" maxHaltingDuration="61.00" haltingDurationSum="227.00" meanIntervalHaltingDuration="32.28" maxIntervalHaltingDuration="60.00" intervalHaltingDurationSum="226.00" startedHalts="6.00" meanVehicleNumber="4.58" maxVehicleNumber="8" />
   <interval begin="60.00" end="120.00" id="queue_Sbound_0" sampledSeconds="73.50" nVehEntered="17" nVehLeft="17" nVehSeen="18" meanSpeed="15.58" meanTimeLoss="0.27" meanOccupancy="9.29" maxOccupancy="16.67" meanMaxJamLengthInVehicles="0.00" meanMaxJamLengthInMeters="0.00" maxJamLengthInVehicles="0" maxJamLengthInMeters="0.00" jamLengthInVehiclesSum="0" jamLengthInMetersSum="0.00" meanHaltingDuration="0.00" maxHaltingDuration="0.00" haltingDurationSum="0.00" meanIntervalHaltingDuration="0.00" maxIntervalHaltingDuration="0.00" intervalHaltingDurationSum="0.00" startedHalts="0.00" meanVehicleNumber="1.52" maxVehicleNumber="2" />
   <interval begin="60.00" end="120.00" id="queue_Sbound_1" sampledSeconds="194.28" nVehEntered="4" nVehLeft="8" nVehSeen="8" meanSpeed="1.60" meanTimeLoss="22.02" meanOccupancy="23.35" maxOccupancy="43.84" meanMaxJamLengthInVehicles="2.52" meanMaxJamLengthInMeters="15.77" maxJamLengthInVehicles="6" maxJamLengthInMeters="38.87" jamLengthInVehiclesSum="151" jamLengthInMetersSum="946.18" meanHaltingDuration="40.67" maxHaltingDuration="71.00" haltingDurationSum="244.00" meanIntervalHaltingDuration="25.50" maxIntervalHaltingDuration="32.00" intervalHaltingDurationSum="153.00" startedHalts="2.00" meanVehicleNumber="3.32" maxVehicleNumber="6" />
   <interval begin="120.00" end="180.00" id="queue_Lup_0" sampledSeconds="434.42" nVehEntered="8" nVehLeft="6" nVehSeen="13" meanSpeed="0.33" meanTimeLoss="32.77" meanOccupancy="54.98" maxOccupancy="66.65" meanMaxJamLengthInVehicles="6.83" meanMaxJamLengthInMeters="45.59" maxJamLengthInVehicles="9" maxJamLengthInMeters="60.00" jamLengthInVehiclesSum="410" jamLengthInMetersSum="2735.31" meanHaltingDuration="52.67" maxHaltingDuration="83.00" haltingDurationSum="474.00" meanIntervalHaltingDuration="46.11" maxIntervalHaltingDuration="60.00" intervalHaltingDurationSum="415.00" startedHalts="5.00" meanVehicleNumber="7.33" maxVehicleNumber="9" />
   <interval begin="120.00" end="180.00" id="queue_Lup_1" sampledSeconds="398.31" nVehEntered="6" nVehLeft="2" nVehSeen="9" meanSpeed="0.26" meanTimeLoss="43.56" meanOccupancy="49.96" maxOccupancy="66.65" meanMaxJamLengthInVehicles="6.25" meanMaxJamLengthInMeters="41.41" maxJamLengthInVehicles="9" maxJamLengthInMeters="60.00" jamLengthInVehiclesSum="375" jamLengthInMetersSum="2484.33" meanHaltingDuration="47.00" maxHaltingDuration="80.00" haltingDurationSum="423.00" meanIntervalHaltingDuration="42.33" maxIntervalHaltingDuration="59.00" intervalHaltingDurationSum="381.00" startedHalts="6.00" meanVehicleNumber="6.68" maxVehicleNumber="9" />
   <interval begin="120.00" end="180.00" id="queue_Rup_0" sampledSeconds="17.65" nVehEntered="2" nVehLeft="2" nVehSeen="2" meanSpeed="10.76" meanTimeLoss="0.48" meanOccupancy="1.52" maxOccupancy="5.56" meanMaxJamLengthInVehicles="0.00" meanMaxJamLengthInMeters="0.00" maxJamLengthInVehicles="0" maxJamLengthInMeters="0.00" jamLengthInVehiclesSum="0" jamLengthInMetersSum="0.00" meanHaltingDuration="0.00" maxHaltingDuration="0.00" haltingDurationSum="0.00" meanIntervalHaltingDuration="0.00" maxIntervalHaltingDuration="0.00" intervalHaltingDurationSum="0.00" startedHalts="0.00" meanVehicleNumber="0.35" maxVehicleNumber="1" />
   <interval begin="120.00" end="180.00" id="queue_Rup_1" sampledSeconds="317.85" nVehEntered="6" nVehLeft="12" nVehSeen="14" meanSpeed="2.43" meanTimeLoss="17.78" meanOccupancy="28.23" maxOccupancy="50.00" meanMaxJamLengthInVehicles="3.32" meanMaxJamLengthInMeters="23.30" maxJamLengthInVehicles="9" maxJamLengthInMeters="63.89" jamLengthInVehiclesSum="199" jamLengthInMetersSum="1398.17" meanHaltingDuration="30.93" maxHaltingDuration="79.00" haltingDurationSum="433.00" meanIntervalHaltingDuration="14.71" maxIntervalHaltingDuration="26.00" intervalHaltingDurationSum="206.00" startedHalts="7.00" meanVehicleNumber="5.43" maxVehicleNumber="10" />
   <interval begin="120.00" end="180.00" id="queue_Sbound_0" sampledSeconds="72.82" nVehEntered="17" nVehLeft="18" nVehSeen="18" meanSpeed="15.44" meanTimeLoss="0.23" meanOccupancy="9.35" maxOccupancy="16.67" meanMaxJamLengthInVehicles="0.00" meanMaxJamLengthInMeters="0.00" maxJamLengthInVehicles="0" maxJamLengthInMeters="0.00" jamLengthInVehiclesSum="0" jamLengthInMetersSum="0.00" meanHaltingDuration="0.00" maxHaltingDuration="0.00" haltingDurationSum="0.00" meanIntervalHaltingDuration="0.00" maxIntervalHaltingDuration="0.00" intervalHaltingDurationSum="0.00" startedHalts="0.00" meanVehicleNumber="1.52" maxVehicleNumber="2" />
   <interval begin="120.00" end="180.00" id="queue_Sbound_1" sampledSeconds="92.12" nVehEntered="5" nVehLeft="1" nVehSeen="5" meanSpeed="2.69" meanTimeLoss="15.55" meanOccupancy="8.99" maxOccupancy="27.17" meanMaxJamLengthInVehicles="1.13" meanMaxJamLengthInMeters="4.79" maxJamLengthInVehicles="3" maxJamLengthInMeters="16.31" jamLengthInVehiclesSum="68" jamLengthInMetersSum="287.19" meanHaltingDuration="23.67" maxHaltingDuration="37.00" haltingDurationSum="71.00" meanIntervalHaltingDuration="23.67" maxIntervalHaltingDuration="37.00" intervalHaltingDurationSum="71.00" startedHalts="3.00" meanVehicleNumber="1.58" maxVehicleNumber="4" />
   <interval begin="180.00" end="240.00" id="queue_Lup_0" sampledSeconds="141.51" nVehEntered="13" nVehLeft="17" nVehSeen="20" meanSpeed="6.83" meanTimeLoss="4.23" meanOccupancy="17.30" maxOccupancy="54.47" meanMaxJamLengthInVehicles="0.52" meanMaxJamLengthInMeters="2.51" maxJamLengthInVehicles="5" maxJamLengthInMeters="33.38" jamLengthInVehiclesSum="31" jamLengthInMetersSum="150.62" meanHaltingDuration="34.88" maxHaltingDuration="63.00" haltingDurationSum="279.00" meanIntervalHaltingDuration="4.12" maxIntervalHaltingDuration="12.00" intervalHaltingDurationSum="33.00" startedHalts="2.00" meanVehicleNumber="2.62" maxVehicleNumber="7" />
   <interval begin="180.00" end="240.00" id="queue_Lup_1" sampledSeconds="92.74" nVehEntered="6" nVehLeft="12" nVehSeen="13" meanSpeed="6.10" meanTimeLoss="4.45" meanOccupancy="10.70" maxOccupancy="54.47" meanMaxJamLengthInVehicles="0.37" meanMaxJamLengthInMeters="1.90" maxJamLengthInVehicles="5" maxJamLengthInMeters="33.30" jamLengthInVehiclesSum="22" jamLengthInMetersSum="114.26" meanHaltingDuration="33.14" maxHaltingDuration="56.00" haltingDurationSum="232.00" meanIntervalHaltingDuration="3.29" maxIntervalHaltingDuration="6.00" intervalHaltingDurationSum="23.00" startedHalts="1.00" meanVehicleNumber="1.68" maxVehicleNumber="7" />
   <interval begin="180.00" end="240.00" id="queue_Rup_0" sampledSeconds="8.92" nVehEntered="1" nVehLeft="1" nVehSeen="1" meanSpeed="10.65" meanTimeLoss="0.40" meanOccupancy="0.80" maxOccupancy="5.56" meanMaxJamLengthInVehicles="0.00" meanMaxJamLengthInMeters="0.00" maxJamLengthInVehicles="0" maxJamLengthInMeters="0.00" jamLengthInVehiclesSum="0" jamLengthInMetersSum="0.00" meanHaltingDuration="0.00" maxHaltingDuration="0.00" haltingDurationSum="0.00" meanIntervalHaltingDuration="0.00" maxIntervalHaltingDuration="0.00" intervalHaltingDurationSum="0.00" startedHalts="0.00" meanVehicleNumber="0.17" maxVehicleNumber="1" />
   <interval begin="180.00" end="240.00" id="queue_Rup_1" sampledSeconds="289.38" nVehEntered="5" nVehLeft="0" nVehSeen="7" meanSpeed="1.24" meanTimeLoss="36.90" meanOccupancy="25.64" maxOccupancy="37.61" meanMaxJamLengthInVehicles="4.08" meanMaxJamLengthInMeters="26.98" maxJamLengthInVehicles="7" maxJamLengthInMeters="48.87" jamLengthInVehiclesSum="245" jamLengthInMetersSum="1618.92" meanHaltingDuration="36.14" maxHaltingDuration="62.00" haltingDurationSum="253.00" meanIntervalHaltingDuration="35.86" maxIntervalHaltingDuration="60.00" intervalHaltingDurationSum="251.00" startedHalts="6.00" meanVehicleNumber="4.87" maxVehicleNumber="7" />
   <interval begin="180.00" end="240.00" id="queue_Sbound_0" sampledSeconds="73.52" nVehEntered="18" nVehLeft="17" nVehSeen="18" meanSpeed="15.68" meanTimeLoss="0.26" meanOccupancy="9.33" maxOccupancy="16.67" meanMaxJamLengthInVehicles="0.00" meanMaxJamLengthInMeters="0.00" maxJamLengthInVehicles="0" maxJamLengthInMeters="0.00" jamLengthInVehiclesSum="0" jamLengthInMetersSum="0.00" meanHaltingDuration="0.00" maxHaltingDuration="0.00" haltingDurationSum="0.00" meanIntervalHaltingDuration="0.00" maxIntervalHaltingDuration="0.00" intervalHaltingDurationSum="0.00" startedHalts="0.00" meanVehicleNumber="1.50" maxVehicleNumber="2" />
   <interval begin="180.00" end="240.00" id="queue_Sbound_1" sampledSeconds="299.06" nVehEntered="4" nVehLeft="6" nVehSeen="8" meanSpeed="1.06" meanTimeLoss="35.15" meanOccupancy="36.41" maxOccupancy="52.17" meanMaxJamLengthInVehicles="4.10" meanMaxJamLengthInMeters="25.86" maxJamLengthInVehicles="7" maxJamLengthInMeters="46.40" jamLengthInVehiclesSum="246" jamLengthInMetersSum="1551.78" meanHaltingDuration="45.86" maxHaltingDuration="82.00" haltingDurationSum="321.00" meanIntervalHaltingDuration="35.71" maxIntervalHaltingDuration="48.00" intervalHaltingDurationSum="250.00" startedHalts="4.00" meanVehicleNumber="5.07" maxVehicleNumber="7" />
   <interval begin="240.00" end="300.00" id="queue_Lup_0" sampledSeconds="344.53" nVehEntered="12" nVehLeft="6" nVehSeen="15" meanSpeed="0.74" meanTimeLoss="21.94" meanOccupancy="43.73" maxOccupancy="66.65" meanMaxJamLengthInVehicles="5.17" meanMaxJamLengthInMeters="33.53" maxJamLengthInVehicles="9" maxJamLengthInMeters="60.00" jamLengthInVehiclesSum="310" jamLengthInMetersSum="2011.96" meanHaltingDuration="36.78" maxHaltingDuration="72.00" haltingDurationSum="331.00" meanIntervalHaltingDuration="35.22" maxIntervalHaltingDuration="60.00" intervalHaltingDurationSum="317.00" startedHalts="7.00" meanVehicleNumber="5.85" maxVehicleNumber="9" />
   <interval begin="240.00" end="300.00" id="queue_Lup_1" sampledSeconds="295.58" nVehEntered="7" nVehLeft="0" nVehSeen="8" meanSpeed="0.43" meanTimeLoss="36.04" meanOccupancy="36.62" maxOccupancy="62.19" meanMaxJamLengthInVehicles="4.50" meanMaxJamLengthInMeters="28.57" maxJamLengthInVehicles="8" maxJamLengthInMeters="54.82" jamLengthInVehiclesSum="270" jamLengthInMetersSum="1714.40" meanHaltingDuration="35.38" maxHaltingDuration="66.00" haltingDurationSum="283.00" meanIntervalHaltingDuration="34.62" maxIntervalHaltingDuration="60.00" intervalHaltingDurationSum="277.00" startedHalts="7.00" meanVehicleNumber="4.93" maxVehicleNumber="8" />
   <interval begin="240.00" end="300.00" id="queue_Rup_0" sampledSeconds="19.08" nVehEntered="2" nVehLeft="2" nVehSeen="2" meanSpeed="9.96" meanTimeLoss="0.54" meanOccupancy="1.67" maxOccupancy="5.56" meanMaxJamLengthInVehicles="0.00" meanMaxJamLengthInMeters="0.00" maxJamLengthInVehicles="0" maxJamLengthInMeters="0.00" jamLengthInVehiclesSum="0" jamLengthInMetersSum="0.00" meanHaltingDuration="0.00" maxHaltingDuration="0.00" haltingDurationSum="0.00" meanIntervalHaltingDuration="0.00" maxIntervalHaltingDuration="0.00" intervalHaltingDurationSum="0.00" startedHalts="0.00" meanVehicleNumber="0.35" maxVehicleNumber="1" />
   <interval begin="240.00" end="300.00" id="queue_Rup_1" sampledSeconds="510.18" nVehEntered="6" nVehLeft="11" nVehSeen="13" meanSpeed="1.38" meanTimeLoss="34.33" meanOccupancy="45.65" maxOccupancy="64.31" meanMaxJamLengthInVehicles="6.68" meanMaxJamLengthInMeters="47.56" maxJamLengthInVehicles="11" maxJamLengthInMeters="78.88" jamLengthInVehiclesSum="401" jamLengthInMetersSum="2853.42" meanHaltingDuration="54.92" maxHaltingDuration="98.00" haltingDurationSum="659.00" meanIntervalHaltingDuration="33.83" maxIntervalHaltingDuration="43.00" intervalHaltingDurationSum="406.00" startedHalts="5.00" meanVehicleNumber="8.67" maxVehicleNumber="12" />
   <interval begin="240.00" end="300.00" id="queue_Sbound_0" sampledSeconds="73.05" nVehEntered="18" nVehLeft="18" nVehSeen="19" meanSpeed="15.97" meanTimeLoss="0.24" meanOccupancy="9.41" maxOccupancy="16.67" meanMaxJamLengthInVehicles="0.00" meanMaxJamLengthInMeters="0.00" maxJamLengthInVehicles="0" maxJamLengthInMeters="0.00" jamLengthInVehiclesSum="0" jamLengthInMetersSum="0.00" meanHaltingDuration="0.00" maxHaltingDuration="0.00" haltingDurationSum="0.00" meanIntervalHaltingDuration="0.00" maxIntervalHaltingDuration="0.00" intervalHaltingDurationSum="0.00" startedHalts="0.00" meanVehicleNumber="1.55" maxVehicleNumber="2" />
   <interval begin="240.00" end="300.00" id="queue_Sbound_1" sampledSeconds="52.74" nVehEntered="4" nVehLeft="4" nVehSeen="6" meanSpeed="5.14" meanTimeLoss="5.97" meanOccupancy="4.74" maxOccupancy="10.50" meanMaxJamLengthInVehicles="0.45" meanMaxJamLengthInMeters="1.31" maxJamLengthInVehicles="2" maxJamLengthInMeters="8.82" jamLengthInVehiclesSum="27" jamLengthInMetersSum="78.62" meanHaltingDuration="14.50" maxHaltingDuration="21.00" haltingDurationSum="29.00" meanIntervalHaltingDuration="14.50" maxIntervalHaltingDuration="21.00" intervalHaltingDurationSum="29.00" startedHalts="2.00" meanVehicleNumber="0.95" maxVehicleNumber="2" />
   <interval begin="300.00" end="360.00" id="queue_Lup_0" sampledSeconds="279.04" nVehEntered="10" nVehLeft="17" nVehSeen="19" meanSpeed="2.69" meanTimeLoss="12.31" meanOccupancy="34.86" maxOccupancy="66.65" meanMaxJamLengthInVehicles="2.73" meanMaxJamLengthInMeters="18.20" maxJamLengthInVehicles="9" maxJamLengthInMeters="60.00" jamLengthInVehiclesSum="164" jamLengthInMetersSum="1092.12" meanHaltingDuration="38.38" maxHaltingDuration="85.00" haltingDurationSum="499.00" meanIntervalHaltingDuration="12.92" maxIntervalHaltingDuration="23.00" intervalHaltingDurationSum="168.00" startedHalts="4.00" meanVehicleNumber="4.87" maxVehicleNumber="9" />
   <interval begin="300.00" end="360.00" id="queue_Lup_1" sampledSeconds="230.87" nVehEntered="7" nVehLeft="15" nVehSeen="15" meanSpeed="2.71" meanTimeLoss="12.83" meanOccupancy="28.28" maxOccupancy="66.65" meanMaxJamLengthInVehicles="2.62" meanMaxJamLengthInMeters="17.50" maxJamLengthInVehicles="9" maxJamLengthInMeters="60.00" jamLengthInVehiclesSum="157" jamLengthInMetersSum="1049.78" meanHaltingDuration="49.00" maxHaltingDuration="79.00" haltingDurationSum="441.00" meanIntervalHaltingDuration="17.55" maxIntervalHaltingDuration="22.00" intervalHaltingDurationSum="158.00" startedHalts="1.00" meanVehicleNumber="4.00" maxVehicleNumber="9" />
   <interval begin="300.00" end="360.00" id="queue_Rup_0" sampledSeconds="11.04" nVehEntered="2" nVehLeft="1" nVehSeen="2" meanSpeed="10.02" meanTimeLoss="0.36" meanOccupancy="1.03" maxOccupancy="5.56" meanMaxJamLengthInVehicles="0.00" meanMaxJamLengthInMeters="0.00" maxJamLengthInVehicles="0" maxJamLengthInMeters="0.00" jamLengthInVehiclesSum="0" jamLengthInMetersSum="0.00" meanHaltingDuration="0.00" maxHaltingDuration="0.00" haltingDurationSum="0.00" meanIntervalHaltingDuration="0.00" maxIntervalHaltingDuration="0.00" intervalHaltingDurationSum="0.00" startedHalts="0.00" meanVehicleNumber="0.22" maxVehicleNumber="1" />
   <interval begin="300.00" end="360.00" id="queue_Rup_1" sampledSeconds="191.08" nVehEntered="7" nVehLeft="3" nVehSeen="9" meanSpeed="3.00" meanTimeLoss="15.24" meanOccupancy="16.63" maxOccupancy="32.06" meanMaxJamLengthInVehicles="2.00" meanMaxJamLengthInMeters="12.51" maxJamLengthInVehicles="4" maxJamLengthInMeters="26.39" jamLengthInVehiclesSum="120" jamLengthInMetersSum="750.70" meanHaltingDuration="31.00" maxHaltingDuration="42.00" haltingDurationSum="124.00" meanIntervalHaltingDuration="31.00" maxIntervalHaltingDuration="42.00" intervalHaltingDurationSum="124.00" startedHalts="4.00" meanVehicleNumber="3.28" maxVehicleNumber="6" />
   <interval begin="300.00" end="360.00" id="queue_Sbound_0" sampledSeconds="70.15" nVehEntered="17" nVehLeft="17" nVehSeen="18" meanSpeed="15.66" meanTimeLoss="0.20" meanOccupancy="8.94" maxOccupancy="16.67" meanMaxJamLengthInVehicles="0.00" meanMaxJamLengthInMeters="0.00" maxJamLengthInVehicles="0" maxJamLengthInMeters="0.00" jamLengthInVehiclesSum="0" jamLengthInMetersSum="0.00" meanHaltingDuration="0.00" maxHaltingDuration="0.00" haltingDurationSum="0.00" meanIntervalHaltingDuration="0.00" maxIntervalHaltingDuration="0.00" intervalHaltingDurationSum="0.00" startedHalts="0.00" meanVehicleNumber="1.45" maxVehicleNumber="2" />
   <interval begin="300.00" end="360.00" id="queue_Sbound_1" sampledSeconds="277.61" nVehEntered="5" nVehLeft="0" nVehSeen="7" meanSpeed="0.61" meanTimeLoss="38.17" meanOccupancy="32.59" maxOccupancy="52.17" meanMaxJamLengthInVehicles="4.25" meanMaxJamLengthInMeters="25.68" maxJamLengthInVehicles="6" maxJamLengthInMeters="38.81" jamLengthInVehiclesSum="255" jamLengthInMetersSum="1540.78" meanHaltingDuration="41.28" maxHaltingDuration="81.00" haltingDurationSum="289.00" meanIntervalHaltingDuration="37.14" maxIntervalHaltingDuration="60.00" intervalHaltingDurationSum="260.00" startedHalts="5.00" meanVehicleNumber="4.67" maxVehicleNumber="7" />
   <interval begin="360.00" end="420.00" id="queue_Lup_0" sampledSeconds="240.63" nVehEntered="12" nVehLeft="7" nVehSeen="14" meanSpeed="1.68" meanTimeLoss="15.41" meanOccupancy="29.67" maxOccupancy="53.85" meanMaxJamLengthInVehicles="3.25" meanMaxJamLengthInMeters="19.71" maxJamLengthInVehicles="7" maxJamLengthInMeters="47.32" jamLengthInVehiclesSum="195" jamLengthInMetersSum="1182.63" meanHaltingDuration="28.86" maxHaltingDuration="55.00" haltingDurationSum="202.00" meanIntervalHaltingDuration="28.86" maxIntervalHaltingDuration="55.00" intervalHaltingDurationSum="202.00" startedHalts="7.00" meanVehicleNumber="4.12" maxVehicleNumber="7" />
   <interval begin="360.00" end="420.00" id="queue_Lup_1" sampledSeconds="182.00" nVehEntered="6" nVehLeft="0" nVehSeen="6" meanSpeed="0.71" meanTimeLoss="29.07" meanOccupancy="21.48" maxOccupancy="45.52" meanMaxJamLengthInVehicles="2.65" meanMaxJamLengthInMeters="15.65" maxJamLengthInVehicles="6" maxJamLengthInMeters="39.85" jamLengthInVehiclesSum="159" jamLengthInMetersSum="938.92" meanHaltingDuration="27.50" maxHaltingDuration="50.00" haltingDurationSum="165.00" meanIntervalHaltingDuration="27.50" maxIntervalHaltingDuration="50.00" intervalHaltingDurationSum="165.00" startedHalts="6.00" meanVehicleNumber="3.03" maxVehicleNumber="6" />
   <interval begin="360.00" end="420.00" id="queue_Rup_0" sampledSeconds="16.37" nVehEntered="1" nVehLeft="2" nVehSeen="2" meanSpeed="10.65" meanTimeLoss="0.50" meanOccupancy="1.40" maxOccupancy="5.56" meanMaxJamLengthInVehicles="0.00" meanMaxJamLengthInMeters="0.00" maxJamLengthInVehicles="0" maxJamLengthInMeters="0.00" jamLengthInVehiclesSum="0" jamLengthInMetersSum="0.00" meanHaltingDuration="0.00" maxHaltingDuration="0.00" haltingDurationSum="0.00" meanIntervalHaltingDuration="0.00" maxIntervalHaltingDuration="0.00" intervalHaltingDurationSum="0.00" startedHalts="0.00" meanVehicleNumber="0.30" maxVehicleNumber="1" />
   <interval begin="360.00" end="420.00" id="queue_Rup_1" sampledSeconds="540.23" nVehEntered="5" nVehLeft="3" nVehSeen="11" meanSpeed="0.43" meanTimeLoss="47.30" meanOccupancy="48.77" maxOccupancy="59.84" meanMaxJamLengthInVehicles="8.25" meanMaxJamLengthInMeters="58.48" maxJamLengthInVehicles="11" maxJamLengthInMeters="78.87" jamLengthInVehiclesSum="495" jamLengthInMetersSum="3508.94" meanHaltingDuration="56.91" maxHaltingDuration="95.00" haltingDurationSum="626.00" meanIntervalHaltingDuration="45.64" maxIntervalHaltingDuration="57.00" intervalHaltingDurationSum="502.00" startedHalts="7.00" meanVehicleNumber="9.08" maxVehicleNumber="11" />
   <interval begin="360.00" end="420.00" id="queue_Sbound_0" sampledSeconds="73.31" nVehEntered="18" nVehLeft="18" nVehSeen="19" meanSpeed="15.93" meanTimeLoss="0.21" meanOccupancy="9.24" maxOccupancy="16.67" meanMaxJamLengthInVehicles="0.00" meanMaxJamLengthInMeters="0.00" maxJamLengthInVehicles="0" maxJamLengthInMeters="0.00" jamLengthInVehiclesSum="0" jamLengthInMetersSum="0.00" meanHaltingDuration="0.00" maxHaltingDuration="0.00" haltingDurationSum="0.00" meanIntervalHaltingDuration="0.00" maxIntervalHaltingDuration="0.00" intervalHaltingDurationSum="0.00" startedHalts="0.00" meanVehicleNumber="1.52" maxVehicleNumber="2" />
   <interval begin="360.00" end="420.00" id="queue_Sbound_1" sampledSeconds="101.90" nVehEntered="4" nVehLeft="10" nVehSeen="11" meanSpeed="4.18" meanTimeLoss="6.96" meanOccupancy="12.12" maxOccupancy="52.17" meanMaxJamLengthInVehicles="0.80" meanMaxJamLengthInMeters="4.79" maxJamLengthInVehicles="7" maxJamLengthInMeters="46.31" jamLengthInVehiclesSum="48" jamLengthInMetersSum="287.61" meanHaltingDuration="42.25" maxHaltingDuration="83.00" haltingDurationSum="338.00" meanIntervalHaltingDuration="6.12" maxIntervalHaltingDuration="10.00" intervalHaltingDurationSum="49.00" startedHalts="1.00" meanVehicleNumber="1.83" maxVehicleNumber="7" />
   <interval begin="420.00" end="480.00" id="queue_Lup_0" sampledSeconds="385.79" nVehEntered="8" nVehLeft="14" nVehSeen="15" meanSpeed="1.44" meanTimeLoss="23.40" meanOccupancy="48.26" maxOccupancy="66.65" meanMaxJamLengthInVehicles="4.90" meanMaxJamLengthInMeters="32.87" maxJamLengthInVehicles="9" maxJamLengthInMeters="60.00" jamLengthInVehiclesSum="294" jamLengthInMetersSum="1972.40" meanHaltingDuration="55.33" maxHaltingDuration="85.00" haltingDurationSum="498.00" meanIntervalHaltingDuration="32.89" maxIntervalHaltingDuration="38.00" intervalHaltingDurationSum="296.00" startedHalts="2.00" meanVehicleNumber="6.63" maxVehicleNumber="9" />
   <interval begin="420.00" end="480.00" id="queue_Lup_1" sampledSeconds="356.58" nVehEntered="8" nVehLeft="14" nVehSeen="14" meanSpeed="1.73" meanTimeLoss="22.89" meanOccupancy="44.87" maxOccupancy="66.65" meanMaxJamLengthInVehicles="4.63" meanMaxJamLengthInMeters="31.19" maxJamLengthInVehicles="9" maxJamLengthInMeters="60.00" jamLengthInVehiclesSum="278" jamLengthInMetersSum="1871.53" meanHaltingDuration="49.55" maxHaltingDuration="80.00" haltingDurationSum="446.00" meanIntervalHaltingDuration="31.22" maxIntervalHaltingDuration="37.00" intervalHaltingDurationSum="281.00" startedHalts="3.00" meanVehicleNumber="6.12" maxVehicleNumber="9" />