<?xml version="1.0" encoding="UTF-8"?>

<!-- generated on 2026-05-25T01:51:34.280270+08:00 by Eclipse SUMO GUI 1.26.0
<sumoConfiguration xmlns:xsi="http://www.w3.org/2001/XMLSchema-instance" xsi:noNamespaceSchemaLocation="http://sumo.dlr.de/xsd/sumoConfiguration.xsd">

    <input>
        <net-file value="C:\Users\mmmma\TrafficProject\baseline_cases\afternoon_baseline_case\initial8_network.net.xml"/>
        <route-files value="C:\Users\mmmma\TrafficProject\baseline_cases\afternoon_baseline_case\routes_afternoon.rou.xml"/>
        <additional-files value="C:\Users\mmmma\TrafficProject\baseline_cases\afternoon_baseline_case\detectors.add.xml"/>
    </input>

    <output>
        <tripinfo-output value="C:\Users\mmmma\TrafficProject\baseline_cases\afternoon_baseline_case\outputs_afternoon/tripinfo.xml"/>
        <edgedata-output value="C:\Users\mmmma\TrafficProject\baseline_cases\afternoon_baseline_case\outputs_afternoon/edge_data.xml"/>
    </output>

    <time>
        <begin value="0"/>
        <end value="3600"/>
    </time>

    <gui_only>
        <start value="true"/>
    </gui_only>

</sumoConfiguration>
-->

<tripinfos xmlns:xsi="http://www.w3.org/2001/XMLSchema-instance" xsi:noNamespaceSchemaLocation="http://sumo.dlr.de/xsd/tripinfo_file.xsd">
    <tripinfo id="PM_Sbound_straight.0" depart="0.00" departLane="southbound_lanes_0" departPos="5.10" departSpeed="0.00" departDelay="0.00" arrival="23.00" arrivalLane="Ldown_0" arrivalPos="161.93" arrivalSpeed="16.56" duration="23.00" routeLength="305.87" waitingTime="0.00" waitingCount="0" stopTime="0.00" timeLoss="3.96" rerouteNo="0" devices="tripinfo_PM_Sbound_straight.0 routing_PM_Sbound_straight.0" vType="car" speedFactor="1.01" vaporized=""/>
    <tripinfo id="PM_Sbound_straight.1" depart="6.00" departLane="southbound_lanes_0" departPos="5.10" departSpeed="0.00" departDelay="3.56" arrival="28.00" arrivalLane="Ldown_0" arrivalPos="161.93" arrivalSpeed="16.90" duration="22.00" routeLength="305.87" waitingTime="0.00" waitingCount="0" stopTime="0.00" timeLoss="4.11" rerouteNo="0" devices="tripinfo_PM_Sbound_straight.1 routing_PM_Sbound_straight.1" vType="car" speedFactor="1.05" vaporized=""/>
    <tripinfo id="PM_Sbound_straight.2" depart="9.00" departLane="southbound_lanes_0" departPos="5.10" departSpeed="0.00" departDelay="4.12" arrival="34.00" arrivalLane="Ldown_0" arrivalPos="161.93" arrivalSpeed="14.01" duration="25.00" routeLength="305.87" waitingTime="0.00" waitingCount="0" stopTime="0.00" timeLoss="3.95" rerouteNo="0" devices="tripinfo_PM_Sbound_straight.2 routing_PM_Sbound_straight.2" vType="car" speedFactor="0.89" vaporized=""/>
    <tripinfo id="PM_Sbound_straight.3" depart="12.00" departLane="southbound_lanes_0" departPos="5.10" departSpeed="0.00" departDelay="4.68" arrival="38.00" arrivalLane="Ldown_0" arrivalPos="161.93" arrivalSpeed="13.43" duration="26.00" routeLength="305.87" waitingTime="0.00" waitingCount="0" stopTime="0.00" timeLoss="4.36" rerouteNo="0" devices="tripinfo_PM_Sbound_straight.3 routing_PM_Sbound_straight.3" vType="car" speedFactor="0.86" vaporized=""/>
    <tripinfo id="PM_Sbound_straight.4" depart="15.00" departLane="southbound_lanes_0" departPos="5.10" departSpeed="0.00" departDelay="5.24" arrival="40.00" arrivalLane="Ldown_0" arrivalPos="161.93" arrivalSpeed="16.41" duration="25.00" routeLength="305.87" waitingTime="0.00" waitingCount="0" stopTime="0.00" timeLoss="7.54" rerouteNo="0" devices="tripinfo_PM_Sbound_straight.4 routing_PM_Sbound_straight.4" vType="car" speedFactor="1.09" vaporized=""/>
    <tripinfo id="PM_Sbound_straight.5" depart="20.00" departLane="southbound_lanes_0" departPos="5.10" departSpeed="0.00" departDelay="7.80" arrival="43.00" arrivalLane="Ldown_0" arrivalPos="161.93" arrivalSpeed="16.43" duration="23.00" routeLength="305.87" waitingTime="0.00" waitingCount="0" stopTime="0.00" timeLoss="3.89" rerouteNo="0" devices="tripinfo_PM_Sbound_straight.5 routing_PM_Sbound_straight.5" vType="car" speedFactor="0.99" vaporized=""/>
    <tripinfo id="PM_Sbound_straight.6" depart="23.00" departLane="southbound_lanes_0" departPos="5.10" departSpeed="0.00" departDelay="8.36" arrival="48.00" arrivalLane="Ldown_0" arrivalPos="161.93" arrivalSpeed="14.16" duration="25.00" routeLength="305.87" waitingTime="0.00" waitingCount="0" stopTime="0.00" timeLoss="4.63" rerouteNo="0" devices="tripinfo_PM_Sbound_straight.6 routing_PM_Sbound_straight.6" vType="car" speedFactor="0.93" vaporized=""/>
    <tripinfo id="PM_Lup_straight.0" depart="0.00" departLane="Lup_0" departPos="5.10" departSpeed="0.00" departDelay="0.00" arrival="51.00" arrivalLane="northbound_lanes_0" arrivalPos="122.67" arrivalSpeed="16.66" duration="51.00" routeLength="311.00" waitingTime="22.00" waitingCount="1" stopTime="0.00" timeLoss="33.14" rerouteNo="0" devices="tripinfo_PM_Lup_straight.0 routing_PM_Lup_straight.0" vType="car" speedFactor="1.06" vaporized=""/>
    <tripinfo id="PM_Sbound_straight.7" depart="26.00" departLane="southbound_lanes_0" departPos="5.10" departSpeed="0.00" departDelay="8.92" arrival="51.00" arrivalLane="Ldown_0" arrivalPos="161.93" arrivalSpeed="15.32" duration="25.00" routeLength="305.87" waitingTime="0.00" waitingCount="0" stopTime="0.00" timeLoss="4.62" rerouteNo="0" devices="tripinfo_PM_Sbound_straight.7 routing_PM_Sbound_straight.7" vType="car" speedFactor="0.94" vaporized=""/>
    <tripinfo id="PM_Lup_straight.1" depart="6.00" departLane="Lup_0" departPos="5.10" departSpeed="0.00" departDelay="0.30" arrival="52.00" arrivalLane="northbound_lanes_0" arrivalPos="122.67" arrivalSpeed="15.31" duration="46.00" routeLength="311.00" waitingTime="16.00" waitingCount="1" stopTime="0.00" timeLoss="25.51" rerouteNo="0" devices="tripinfo_PM_Lup_straight.1 routing_PM_Lup_straight.1" vType="car" speedFactor="0.94" vaporized=""/>
    <tripinfo id="PM_Lup_straight.2" depart="12.00" departLane="Lup_0" departPos="5.10" departSpeed="0.00" departDelay="0.61" arrival="53.00" arrivalLane="northbound_lanes_1" arrivalPos="122.67" arrivalSpeed="18.22" duration="41.00" routeLength="311.00" waitingTime="11.00" waitingCount="1" stopTime="0.00" timeLoss="24.13" rerouteNo="0" devices="tripinfo_PM_Lup_straight.2 routing_PM_Lup_straight.2" vType="car" speedFactor="1.12" vaporized=""/>
    <tripinfo id="PM_Sbound_straight.8" depart="29.00" departLane="southbound_lanes_0" departPos="5.10" departSpeed="0.00" departDelay="9.48" arrival="54.00" arrivalLane="Ldown_0" arrivalPos="161.93" arrivalSpeed="14.53" duration="25.00" routeLength="305.87" waitingTime="0.00" waitingCount="0" stopTime="0.00" timeLoss="4.66" rerouteNo="0" devices="tripinfo_PM_Sbound_straight.8 routing_PM_Sbound_straight.8" vType="car" speedFactor="0.94" vaporized=""/>
    <tripinfo id="PM_Lup_straight.4" depart="23.00" departLane="Lup_0" departPos="5.10" departSpeed="0.00" departDelay="0.22" arrival="55.00" arrivalLane="northbound_lanes_1" arrivalPos="122.67" arrivalSpeed="15.22" duration="32.00" routeLength="311.00" waitingTime="0.00" waitingCount="0" stopTime="0.00" timeLoss="12.72" rerouteNo="0" devices="tripinfo_PM_Lup_straight.4 routing_PM_Lup_straight.4" vType="car" speedFactor="0.97" vaporized=""/>
    <tripinfo id="PM_Lup_straight.3" depart="18.00" departLane="Lup_0" departPos="5.10" departSpeed="0.00" departDelay="0.91" arrival="57.00" arrivalLane="northbound_lanes_0" arrivalPos="122.67" arrivalSpeed="13.65" duration="39.00" routeLength="311.00" waitingTime="7.00" waitingCount="1" stopTime="0.00" timeLoss="17.72" rerouteNo="0" devices="tripinfo_PM_Lup_straight.3 routing_PM_Lup_straight.3" vType="car" speedFactor="0.88" vaporized=""/>
    <tripinfo id="PM_Sbound_straight.9" depart="34.00" departLane="southbound_lanes_0" departPos="5.10" departSpeed="0.00" departDelay="12.04" arrival="57.00" arrivalLane="Ldown_0" arrivalPos="161.93" arrivalSpeed="16.76" duration="23.00" routeLength="305.87" waitingTime="0.00" waitingCount="0" stopTime="0.00" timeLoss="4.59" rerouteNo="0" devices="tripinfo_PM_Sbound_straight.9 routing_PM_Sbound_straight.9" vType="car" speedFactor="1.01" vaporized=""/>
    <tripinfo id="PM_Lup_straight.5" depart="29.00" departLane="Lup_0" departPos="5.10" departSpeed="0.00" departDelay="0.52" arrival="57.00" arrivalLane="northbound_lanes_1" arrivalPos="122.67" arrivalSpeed="14.76" duration="28.00" routeLength="311.00" waitingTime="0.00" waitingCount="0" stopTime="0.00" timeLoss="7.64" rerouteNo="0" devices="tripinfo_PM_Lup_straight.5 routing_PM_Lup_straight.5" vType="car" speedFactor="0.92" vaporized=""/>
    <tripinfo id="PM_Lup_straight.6" depart="35.00" departLane="Lup_0" departPos="5.10" departSpeed="0.00" departDelay="0.82" arrival="59.00" arrivalLane="northbound_lanes_1" arrivalPos="122.67" arrivalSpeed="18.86" duration="24.00" routeLength="311.00" waitingTime="0.00" waitingCount="0" stopTime="0.00" timeLoss="7.29" rerouteNo="0" devices="tripinfo_PM_Lup_straight.6 routing_PM_Lup_straight.6" vType="car" speedFactor="1.15" vaporized=""/>
    <tripinfo id="PM_Sbound_straight.10" depart="37.00" departLane="southbound_lanes_0" departPos="5.10" departSpeed="0.00" departDelay="12.60" arrival="63.00" arrivalLane="Ldown_0" arrivalPos="161.93" arrivalSpeed="13.18" duration="26.00" routeLength="305.87" waitingTime="0.00" waitingCount="0" stopTime="0.00" timeLoss="3.64" rerouteNo="0" devices="tripinfo_PM_Sbound_straight.10 routing_PM_Sbound_straight.10" vType="car" speedFactor="0.83" vaporized=""/>
    <tripinfo id="PM_Lup_straight.7" depart="40.00" departLane="Lup_0" departPos="5.10" departSpeed="0.00" departDelay="0.13" arrival="64.00" arrivalLane="northbound_lanes_0" arrivalPos="122.67" arrivalSpeed="16.41" duration="24.00" routeLength="311.00" waitingTime="0.00" waitingCount="0" stopTime="0.00" timeLoss="4.69" rerouteNo="0" devices="tripinfo_PM_Lup_straight.7 routing_PM_Lup_straight.7" vType="car" speedFactor="0.99" vaporized=""/>
    <tripinfo id="PM_Sbound_straight.11" depart="40.00" departLane="southbound_lanes_0" departPos="5.10" departSpeed="0.00" departDelay="13.16" arrival="66.00" arrivalLane="Ldown_0" arrivalPos="161.93" arrivalSpeed="13.86" duration="26.00" routeLength="305.87" waitingTime="0.00" waitingCount="0" stopTime="0.00" timeLoss="4.08" rerouteNo="0" devices="tripinfo_PM_Sbound_straight.11 routing_PM_Sbound_straight.11" vType="car" speedFactor="0.87" vaporized=""/>
    <tripinfo id="PM_Sbound_straight.12" depart="43.00" departLane="southbound_lanes_0" departPos="5.10" departSpeed="0.00" departDelay="13.72" arrival="67.00" arrivalLane="Ldown_0" arrivalPos="161.93" arrivalSpeed="14.84" duration="24.00" routeLength="305.87" waitingTime="0.00" waitingCount="0" stopTime="0.00" timeLoss="4.53" rerouteNo="0" devices="tripinfo_PM_Sbound_straight.12 routing_PM_Sbound_straight.12" vType="car" speedFactor="0.95" vaporized=""/>
    <tripinfo id="PM_Sbound_straight.13" depart="48.00" departLane="southbound_lanes_0" departPos="5.10" departSpeed="0.00" departDelay="16.28" arrival="69.00" arrivalLane="Ldown_0" arrivalPos="161.93" arrivalSpeed="19.06" duration="21.00" routeLength="305.87" waitingTime="0.00" waitingCount="0" stopTime="0.00" timeLoss="4.93" rerouteNo="0" devices="tripinfo_PM_Sbound_straight.13 routing_PM_Sbound_straight.13" vType="car" speedFactor="1.18" vaporized=""/>
    <tripinfo id="PM_Lup_straight.8" depart="46.00" departLane="Lup_0" departPos="5.10" departSpeed="0.00" departDelay="0.43" arrival="70.00" arrivalLane="northbound_lanes_0" arrivalPos="122.67" arrivalSpeed="14.71" duration="24.00" routeLength="311.00" waitingTime="0.00" waitingCount="0" stopTime="0.00" timeLoss="3.84" rerouteNo="0" devices="tripinfo_PM_Lup_straight.8 routing_PM_Lup_straight.8" vType="car" speedFactor="0.96" vaporized=""/>
    <tripinfo id="PM_Rup_minor.0" depart="3.00" departLane="Rup_0" departPos="5.10" departSpeed="0.00" departDelay="3.00" arrival="74.00" arrivalLane="northbound_lanes_0" arrivalPos="122.67" arrivalSpeed="13.55" duration="71.00" routeLength="637.97" waitingTime="0.00" waitingCount="0" stopTime="0.00" timeLoss="6.09" rerouteNo="0" devices="tripinfo_PM_Rup_minor.0 routing_PM_Rup_minor.0" vType="car" speedFactor="0.83" vaporized=""/>
    <tripinfo id="PM_Sbound_straight.14" depart="51.00" departLane="southbound_lanes_0" departPos="5.10" departSpeed="0.00" departDelay="16.84" arrival="75.00" arrivalLane="Ldown_0" arrivalPos="161.93" arrivalSpeed="16.57" duration="24.00" routeLength="305.87" waitingTime="0.00" waitingCount="0" stopTime="0.00" timeLoss="4.98" rerouteNo="0" devices="tripinfo_PM_Sbound_straight.14 routing_PM_Sbound_straight.14" vType="car" speedFactor="1.01" vaporized=""/>
    <tripinfo id="PM_Sbound_straight.15" depart="54.00" departLane="southbound_lanes_0" departPos="5.10" departSpeed="0.00" departDelay="17.40" arrival="76.00" arrivalLane="Ldown_0" arrivalPos="161.93" arrivalSpeed="18.52" duration="22.00" routeLength="305.87" waitingTime="0.00" waitingCount="0" stopTime="0.00" timeLoss="6.10" rerouteNo="0" devices="tripinfo_PM_Sbound_straight.15 routing_PM_Sbound_straight.15" vType="car" speedFactor="1.17" vaporized=""/>
    <tripinfo id="PM_Lup_straight.9" depart="52.00" departLane="Lup_0" departPos="5.10" departSpeed="0.00" departDelay="0.74" arrival="77.00" arrivalLane="northbound_lanes_0" arrivalPos="122.67" arrivalSpeed="14.91" duration="25.00" routeLength="311.00" waitingTime="0.00" waitingCount="0" stopTime="0.00" timeLoss="4.19" rerouteNo="0" devices="tripinfo_PM_Lup_straight.9 routing_PM_Lup_straight.9" vType="car" speedFactor="0.90" vaporized=""/>
    <tripinfo id="PM_Sbound_straight.16" depart="57.00" departLane="southbound_lanes_0" departPos="5.10" departSpeed="0.00" departDelay="17.96" arrival="80.00" arrivalLane="Ldown_0" arrivalPos="161.93" arrivalSpeed="16.85" duration="23.00" routeLength="305.87" waitingTime="0.00" waitingCount="0" stopTime="0.00" timeLoss="4.63" rerouteNo="0" devices="tripinfo_PM_Sbound_straight.16 routing_PM_Sbound_straight.16" vType="car" speedFactor="1.02" vaporized=""/>
    <tripinfo id="PM_Lup_straight.10" depart="57.00" departLane="Lup_0" departPos="5.10" departSpeed="0.00" departDelay="0.04" arrival="83.00" arrivalLane="northbound_lanes_0" arrivalPos="122.67" arrivalSpeed="13.23" duration="26.00" routeLength="311.00" waitingTime="0.00" waitingCount="0" stopTime="0.00" timeLoss="3.96" rerouteNo="0" devices="tripinfo_PM_Lup_straight.10 routing_PM_Lup_straight.10" vType="car" speedFactor="0.85" vaporized=""/>
    <tripinfo id="PM_Sbound_straight.17" depart="62.00" departLane="southbound_lanes_0" departPos="5.10" departSpeed="0.00" departDelay="20.52" arrival="87.00" arrivalLane="Ldown_0" arrivalPos="161.93" arrivalSpeed="14.47" duration="25.00" routeLength="305.87" waitingTime="0.00" waitingCount="0" stopTime="0.00" timeLoss="3.85" rerouteNo="0" devices="tripinfo_PM_Sbound_straight.17 routing_PM_Sbound_straight.17" vType="car" speedFactor="0.90" vaporized=""/>
    <tripinfo id="PM_Sbound_straight.18" depart="65.00" departLane="southbound_lanes_0" departPos="5.10" departSpeed="0.00" departDelay="21.08" arrival="88.00" arrivalLane="Ldown_0" arrivalPos="161.93" arrivalSpeed="15.82" duration="23.00" routeLength="305.87" waitingTime="0.00" waitingCount="0" stopTime="0.00" timeLoss="5.03" rerouteNo="0" devices="tripinfo_PM_Sbound_straight.18 routing_PM_Sbound_straight.18" vType="car" speedFactor="1.03" vaporized=""/>
    <tripinfo id="PM_Lup_straight.11" depart="63.00" departLane="Lup_0" departPos="5.10" departSpeed="0.00" departDelay="0.34" arrival="88.00" arrivalLane="northbound_lanes_0" arrivalPos="122.67" arrivalSpeed="14.94" duration="25.00" routeLength="311.00" waitingTime="0.00" waitingCount="0" stopTime="0.00" timeLoss="4.21" rerouteNo="0" devices="tripinfo_PM_Lup_straight.11 routing_PM_Lup_straight.11" vType="car" speedFactor="0.90" vaporized=""/>
    <tripinfo id="PM_Sbound_straight.19" depart="68.00" departLane="southbound_lanes_0" departPos="5.10" departSpeed="0.00" departDelay="21.64" arrival="91.00" arrivalLane="Ldown_0" arrivalPos="161.93" arrivalSpeed="17.21" duration="23.00" routeLength="305.87" waitingTime="0.00" waitingCount="0" stopTime="0.00" timeLoss="4.56" rerouteNo="0" devices="tripinfo_PM_Sbound_straight.19 routing_PM_Sbound_straight.19" vType="car" speedFactor="1.04" vaporized=""/>
    <tripinfo id="PM_Lup_straight.12" depart="69.00" departLane="Lup_0" departPos="5.10" departSpeed="0.00" departDelay="0.65" arrival="93.00" arrivalLane="northbound_lanes_0" arrivalPos="122.67" arrivalSpeed="15.19" duration="24.00" routeLength="311.00" waitingTime="0.00" waitingCount="0" stopTime="0.00" timeLoss="3.98" rerouteNo="0" devices="tripinfo_PM_Lup_straight.12 routing_PM_Lup_straight.12" vType="car" speedFactor="0.97" vaporized=""/>
    <tripinfo id="PM_Sbound_straight.20" depart="71.00" departLane="southbound_lanes_0" departPos="5.10" departSpeed="0.00" departDelay="22.20" arrival="94.00" arrivalLane="Ldown_0" arrivalPos="161.93" arrivalSpeed="16.60" duration="23.00" routeLength="305.87" waitingTime="0.00" waitingCount="0" stopTime="0.00" timeLoss="5.02" rerouteNo="0" devices="tripinfo_PM_Sbound_straight.20 routing_PM_Sbound_straight.20" vType="car" speedFactor="1.04" vaporized=""/>
    <tripinfo id="PM_Lup_turn.0" depart="3.00" departLane="Lup_0" departPos="5.10" departSpeed="0.00" departDelay="3.00" arrival="96.00" arrivalLane="Rdown_0" arrivalPos="493.55" arrivalSpeed="9.23" duration="93.00" routeLength="663.62" waitingTime="19.00" waitingCount="1" stopTime="0.00" timeLoss="32.68" rerouteNo="0" devices="tripinfo_PM_Lup_turn.0 routing_PM_Lup_turn.0" vType="car" speedFactor="0.94" vaporized=""/>
    <tripinfo id="PM_Rup_minor.1" depart="43.00" departLane="Rup_0" departPos="5.10" departSpeed="0.00" departDelay="3.87" arrival="97.00" arrivalLane="northbound_lanes_0" arrivalPos="122.67" arrivalSpeed="17.56" duration="54.00" routeLength="637.97" waitingTime="0.00" waitingCount="0" stopTime="0.00" timeLoss="5.13" rerouteNo="0" devices="tripinfo_PM_Rup_minor.1 routing_PM_Rup_minor.1" vType="car" speedFactor="1.10" vaporized=""/>
    <tripinfo id="PM_Sbound_straight.21" depart="76.00" departLane="southbound_lanes_0" departPos="5.10" departSpeed="0.00" departDelay="24.76" arrival="101.00" arrivalLane="Ldown_0" arrivalPos="161.93" arrivalSpeed="14.14" duration="25.00" routeLength="305.87" waitingTime="0.00" waitingCount="0" stopTime="0.00" timeLoss="3.91" rerouteNo="0" devices="tripinfo_PM_Sbound_straight.21 routing_PM_Sbound_straight.21" vType="car" speedFactor="0.88" vaporized=""/>
    <tripinfo id="PM_Lup_turn.1" depart="26.00" departLane="Lup_0" departPos="5.10" departSpeed="0.00" departDelay="3.22" arrival="104.00" arrivalLane="Rdown_0" arrivalPos="493.55" arrivalSpeed="8.93" duration="78.00" routeLength="663.62" waitingTime="0.00" waitingCount="0" stopTime="0.00" timeLoss="15.10" rerouteNo="0" devices="tripinfo_PM_Lup_turn.1 routing_PM_Lup_turn.1" vType="car" speedFactor="0.89" vaporized=""/>
    <tripinfo id="PM_Sbound_straight.22" depart="79.00" departLane="southbound_lanes_0" departPos="5.10" departSpeed="0.00" departDelay="25.32" arrival="105.00" arrivalLane="Ldown_0" arrivalPos="161.93" arrivalSpeed="14.03" duration="26.00" routeLength="305.87" waitingTime="0.00" waitingCount="0" stopTime="0.00" timeLoss="4.03" rerouteNo="0" devices="tripinfo_PM_Sbound_straight.22 routing_PM_Sbound_straight.22" vType="car" speedFactor="0.85" vaporized=""/>
    <tripinfo id="PM_Sbound_straight.23" depart="82.00" departLane="southbound_lanes_0" departPos="5.10" departSpeed="0.00" departDelay="25.88" arrival="107.00" arrivalLane="Ldown_0" arrivalPos="161.93" arrivalSpeed="16.92" duration="25.00" routeLength="305.87" waitingTime="0.00" waitingCount="0" stopTime="0.00" timeLoss="8.62" rerouteNo="0" devices="tripinfo_PM_Sbound_straight.23 routing_PM_Sbound_straight.23" vType="car" speedFactor="1.17" vaporized=""/>
    <tripinfo id="PM_Lup_turn.2" depart="49.00" departLane="Lup_0" departPos="5.10" departSpeed="0.00" departDelay="3.43" arrival="109.00" arrivalLane="Rdown_0" arrivalPos="493.55" arrivalSpeed="10.97" duration="60.00" routeLength="663.62" waitingTime="0.00" waitingCount="0" stopTime="0.00" timeLoss="8.56" rerouteNo="0" devices="tripinfo_PM_Lup_turn.2 routing_PM_Lup_turn.2" vType="car" speedFactor="1.09" vaporized=""/>
    <tripinfo id="PM_Sbound_straight.24" depart="85.00" departLane="southbound_lanes_0" departPos="5.10" departSpeed="0.00" departDelay="26.44" arrival="109.00" arrivalLane="Ldown_0" arrivalPos="161.93" arrivalSpeed="16.29" duration="24.00" routeLength="305.87" waitingTime="0.00" waitingCount="0" stopTime="0.00" timeLoss="5.00" rerouteNo="0" devices="tripinfo_PM_Sbound_straight.24 routing_PM_Sbound_straight.24" vType="car" speedFactor="1.02" vaporized=""/>
    <tripinfo id="PM_Sbound_straight.25" depart="89.00" departLane="southbound_lanes_0" departPos="5.10" departSpeed="0.00" departDelay="28.00" arrival="112.00" arrivalLane="Ldown_0" arrivalPos="161.93" arrivalSpeed="16.54" duration="23.00" routeLength="305.87" waitingTime="0.00" waitingCount="0" stopTime="0.00" timeLoss="3.88" rerouteNo="0" devices="tripinfo_PM_Sbound_straight.25 routing_PM_Sbound_straight.25" vType="car" speedFactor="1.00" vaporized=""/>
    <tripinfo id="PM_Sbound_straight.26" depart="92.00" departLane="southbound_lanes_0" departPos="5.10" departSpeed="0.00" departDelay="28.56" arrival="113.00" arrivalLane="Ldown_0" arrivalPos="161.93" arrivalSpeed="19.01" duration="21.00" routeLength="305.87" waitingTime="0.00" waitingCount="0" stopTime="0.00" timeLoss="4.79" rerouteNo="0" devices="tripinfo_PM_Sbound_straight.26 routing_PM_Sbound_straight.26" vType="car" speedFactor="1.14" vaporized=""/>
    <tripinfo id="PM_Sbound_straight.27" depart="95.00" departLane="southbound_lanes_0" departPos="5.10" departSpeed="0.00" departDelay="29.12" arrival="118.00" arrivalLane="Ldown_0" arrivalPos="161.93" arrivalSpeed="16.26" duration="23.00" routeLength="305.87" waitingTime="0.00" waitingCount="0" stopTime="0.00" timeLoss="4.46" rerouteNo="0" devices="tripinfo_PM_Sbound_straight.27 routing_PM_Sbound_straight.27" vType="car" speedFactor="1.02" vaporized=""/>
    <tripinfo id="PM_Sbound_straight.28" depart="98.00" departLane="southbound_lanes_0" departPos="5.10" departSpeed="0.00" departDelay="29.68" arrival="120.00" arrivalLane="Ldown_0" arrivalPos="161.93" arrivalSpeed="18.09" duration="22.00" routeLength="305.87" waitingTime="0.00" waitingCount="0" stopTime="0.00" timeLoss="5.20" rerouteNo="0" devices="tripinfo_PM_Sbound_straight.28 routing_PM_Sbound_straight.28" vType="car" speedFactor="1.12" vaporized=""/>
    <tripinfo id="PM_Sbound_straight.29" depart="103.00" departLane="southbound_lanes_0" departPos="5.10" departSpeed="0.00" departDelay="32.24" arrival="127.00" arrivalLane="Ldown_0" arrivalPos="161.93" arrivalSpeed="14.50" duration="24.00" routeLength="305.87" waitingTime="0.00" waitingCount="0" stopTime="0.00" timeLoss="3.91" rerouteNo="0" devices="tripinfo_PM_Sbound_straight.29 routing_PM_Sbound_straight.29" vType="car" speedFactor="0.94" vaporized=""/>
    <tripinfo id="PM_Sbound_straight.30" depart="105.00" departLane="southbound_lanes_0" departPos="5.10" departSpeed="0.00" departDelay="31.80" arrival="131.00" arrivalLane="Ldown_0" arrivalPos="161.93" arrivalSpeed="13.81" duration="26.00" routeLength="305.87" waitingTime="0.00" waitingCount="0" stopTime="0.00" timeLoss="4.88" rerouteNo="0" devices="tripinfo_PM_Sbound_straight.30 routing_PM_Sbound_straight.30" vType="car" speedFactor="0.88" vaporized=""/>
    <tripinfo id="PM_Lup_turn.3" depart="72.00" departLane="Lup_0" departPos="5.10" departSpeed="0.00" departDelay="3.65" arrival="132.00" arrivalLane="Rdown_0" arrivalPos="493.55" arrivalSpeed="11.81" duration="60.00" routeLength="663.62" waitingTime="0.00" waitingCount="0" stopTime="0.00" timeLoss="8.60" rerouteNo="0" devices="tripinfo_PM_Lup_turn.3 routing_PM_Lup_turn.3" vType="car" speedFactor="1.08" vaporized=""/>
    <tripinfo id="PM_Sbound_straight.31" depart="109.00" departLane="southbound_lanes_0" departPos="5.10" departSpeed="0.00" departDelay="33.36" arrival="134.00" arrivalLane="Ldown_0" arrivalPos="161.93" arrivalSpeed="14.13" duration="25.00" routeLength="305.87" waitingTime="0.00" waitingCount="0" stopTime="0.00" timeLoss="4.19" rerouteNo="0" devices="tripinfo_PM_Sbound_straight.31 routing_PM_Sbound_straight.31" vType="car" speedFactor="0.91" vaporized=""/>
    <tripinfo id="PM_Sbound_straight.32" depart="112.00" departLane="southbound_lanes_0" departPos="5.10" departSpeed="0.00" departDelay="33.92" arrival="135.00" arrivalLane="Ldown_0" arrivalPos="161.93" arrivalSpeed="16.72" duration="23.00" routeLength="305.87" waitingTime="0.00" waitingCount="0" stopTime="0.00" timeLoss="5.16" rerouteNo="0" devices="tripinfo_PM_Sbound_straight.32 routing_PM_Sbound_straight.32" vType="car" speedFactor="1.04" vaporized=""/>
    <tripinfo id="PM_Sbound_turn.0" depart="3.00" departLane="southbound_lanes_0" departPos="5.10" departSpeed="0.00" departDelay="3.00" arrival="137.00" arrivalLane="Rdown_0" arrivalPos="493.55" arrivalSpeed="11.38" duration="134.00" routeLength="643.45" waitingTime="71.00" waitingCount="1" stopTime="0.00" timeLoss="83.91" rerouteNo="0" devices="tripinfo_PM_Sbound_turn.0 routing_PM_Sbound_turn.0" vType="car" speedFactor="1.08" vaporized=""/>
    <tripinfo id="PM_Sbound_turn.2" depart="32.00" departLane="southbound_lanes_0" departPos="5.10" departSpeed="0.00" departDelay="12.49" arrival="138.00" arrivalLane="Rdown_1" arrivalPos="493.55" arrivalSpeed="12.54" duration="106.00" routeLength="643.45" waitingTime="46.00" waitingCount="1" stopTime="0.00" timeLoss="59.13" rerouteNo="0" devices="tripinfo_PM_Sbound_turn.2 routing_PM_Sbound_turn.2" vType="car" speedFactor="1.16" vaporized=""/>
    <tripinfo id="PM_Sbound_straight.33" depart="117.00" departLane="southbound_lanes_0" departPos="5.10" departSpeed="0.00" departDelay="36.48" arrival="140.00" arrivalLane="Ldown_0" arrivalPos="161.93" arrivalSpeed="17.29" duration="23.00" routeLength="305.87" waitingTime="0.00" waitingCount="0" stopTime="0.00" timeLoss="4.78" rerouteNo="0" devices="tripinfo_PM_Sbound_straight.33 routing_PM_Sbound_straight.33" vType="car" speedFactor="1.06" vaporized=""/>
    <tripinfo id="PM_Sbound_turn.1" depart="18.00" departLane="southbound_lanes_0" departPos="5.10" departSpeed="0.00" departDelay="8.24" arrival="142.00" arrivalLane="Rdown_0" arrivalPos="493.55" arrivalSpeed="10.42" duration="124.00" routeLength="643.45" waitingTime="57.00" waitingCount="1" stopTime="0.00" timeLoss="70.65" rerouteNo="0" devices="tripinfo_PM_Sbound_turn.1 routing_PM_Sbound_turn.1" vType="car" speedFactor="1.03" vaporized=""/>
    <tripinfo id="PM_Sbound_turn.3" depart="46.00" departLane="southbound_lanes_0" departPos="5.10" departSpeed="0.00" departDelay="16.73" arrival="143.00" arrivalLane="Rdown_1" arrivalPos="493.55" arrivalSpeed="11.71" duration="97.00" routeLength="643.45" waitingTime="32.00" waitingCount="1" stopTime="0.00" timeLoss="48.64" rerouteNo="0" devices="tripinfo_PM_Sbound_turn.3 routing_PM_Sbound_turn.3" vType="car" speedFactor="1.13" vaporized=""/>
    <tripinfo id="PM_Rup_minor.2" depart="82.00" departLane="Rup_0" departPos="5.10" departSpeed="0.00" departDelay="3.74" arrival="143.00" arrivalLane="northbound_lanes_0" arrivalPos="122.67" arrivalSpeed="15.06" duration="61.00" routeLength="637.97" waitingTime="0.00" waitingCount="0" stopTime="0.00" timeLoss="5.87" rerouteNo="0" devices="tripinfo_PM_Rup_minor.2 routing_PM_Rup_minor.2" vType="car" speedFactor="0.97" vaporized=""/>
    <tripinfo id="PM_Sbound_straight.34" depart="120.00" departLane="southbound_lanes_0" departPos="5.10" departSpeed="0.00" departDelay="37.04" arrival="144.00" arrivalLane="Ldown_0" arrivalPos="161.93" arrivalSpeed="15.04" duration="24.00" routeLength="305.87" waitingTime="0.00" waitingCount="0" stopTime="0.00" timeLoss="4.62" rerouteNo="0" devices="tripinfo_PM_Sbound_straight.34 routing_PM_Sbound_straight.34" vType="car" speedFactor="0.96" vaporized=""/>
    <tripinfo id="PM_Sbound_straight.35" depart="123.00" departLane="southbound_lanes_0" departPos="5.10" departSpeed="0.00" departDelay="37.60" arrival="146.00" arrivalLane="Ldown_0" arrivalPos="161.93" arrivalSpeed="16.27" duration="23.00" routeLength="305.87" waitingTime="0.00" waitingCount="0" stopTime="0.00" timeLoss="4.68" rerouteNo="0" devices="tripinfo_PM_Sbound_straight.35 routing_PM_Sbound_straight.35" vType="car" speedFactor="1.03" vaporized=""/>
    <tripinfo id="PM_Sbound_turn.5" depart="74.00" departLane="southbound_lanes_0" departPos="5.10" departSpeed="0.00" departDelay="25.22" arrival="149.00" arrivalLane="Rdown_0" arrivalPos="493.55" arrivalSpeed="11.29" duration="75.00" routeLength="643.45" waitingTime="7.00" waitingCount="1" stopTime="0.00" timeLoss="25.36" rerouteNo="0" devices="tripinfo_PM_Sbound_turn.5 routing_PM_Sbound_turn.5" vType="car" speedFactor="1.09" vaporized=""/>
    <tripinfo id="PM_Sbound_straight.36" depart="126.00" departLane="southbound_lanes_0" departPos="5.10" departSpeed="0.00" departDelay="38.16" arrival="149.00" arrivalLane="Ldown_0" arrivalPos="161.93" arrivalSpeed="15.84" duration="23.00" routeLength="305.87" waitingTime="0.00" waitingCount="0" stopTime="0.00" timeLoss="4.10" rerouteNo="0" devices="tripinfo_PM_Sbound_straight.36 routing_PM_Sbound_straight.36" vType="car" speedFactor="0.98" vaporized=""/>
    <tripinfo id="PM_Rup_major.0" depart="0.00" departLane="Rup_0" departPos="5.10" departSpeed="0.00" departDelay="0.00" arrival="151.00" arrivalLane="Ldown_1" arrivalPos="161.93" arrivalSpeed="16.08" duration="151.00" routeLength="677.17" waitingTime="85.00" waitingCount="1" stopTime="0.00" timeLoss="96.11" rerouteNo="0" devices="tripinfo_PM_Rup_major.0 routing_PM_Rup_major.0" vType="car" speedFactor="1.03" vaporized=""/>