<?xml version="1.0" encoding="UTF-8"?>

<!-- generated on 2026-05-25T01:39:20.556101+08:00 by Eclipse SUMO GUI 1.26.0
<sumoConfiguration xmlns:xsi="http://www.w3.org/2001/XMLSchema-instance" xsi:noNamespaceSchemaLocation="http://sumo.dlr.de/xsd/sumoConfiguration.xsd">

    <input>
        <net-file value="C:\Users\mmmma\TrafficProject\baseline_cases\midday_baseline_case\initial8_network.net.xml"/>
        <route-files value="C:\Users\mmmma\TrafficProject\baseline_cases\midday_baseline_case\routes_midday.rou.xml"/>
        <additional-files value="C:\Users\mmmma\TrafficProject\baseline_cases\midday_baseline_case\detectors.add.xml"/>
    </input>

    <output>
        <tripinfo-output value="C:\Users\mmmma\TrafficProject\baseline_cases\midday_baseline_case\outputs_midday/tripinfo.xml"/>
        <edgedata-output value="C:\Users\mmmma\TrafficProject\baseline_cases\midday_baseline_case\outputs_midday/edge_data.xml"/>
    </output>

    <time>
        <begin value="0"/>
        <end value="3600"/>
    </time>

    <gui_only>
        <start value="true"/>
    </gui_only>

</sumoConfiguration>
-->

<detector xmlns:xsi="http://www.w3.org/2001/XMLSchema-instance" xsi:noNamespaceSchemaLocation="http://sumo.dlr.de/xsd/det_e2_file.xsd">
   <interval begin="0.00" end="60.00" id="queue_Lup_0" sampledSeconds="141.18" nVehEntered="15" nVehLeft="14" nVehSeen="15" meanSpeed="5.01" meanTimeLoss="6.50" meanOccupancy="17.44" maxOccupancy="41.67" meanMaxJamLengthInVehicles="1.08" meanMaxJamLengthInMeters="5.95" maxJamLengthInVehicles="4" maxJamLengthInMeters="24.84" jamLengthInVehiclesSum="65" jamLengthInMetersSum="357.09" meanHaltingDuration="14.00" maxHaltingDuration="24.00" haltingDurationSum="70.00" meanIntervalHaltingDuration="14.00" maxIntervalHaltingDuration="24.00" intervalHaltingDurationSum="70.00" startedHalts="5.00" meanVehicleNumber="2.60" maxVehicleNumber="6" />
   <interval begin="0.00" end="60.00" id="queue_Lup_1" sampledSeconds="82.51" nVehEntered="7" nVehLeft="7" nVehSeen="7" meanSpeed="3.29" meanTimeLoss="9.42" meanOccupancy="9.45" maxOccupancy="28.85" meanMaxJamLengthInVehicles="0.68" meanMaxJamLengthInMeters="3.59" maxJamLengthInVehicles="3" maxJamLengthInMeters="20.04" jamLengthInVehiclesSum="41" jamLengthInMetersSum="215.48" meanHaltingDuration="11.25" maxHaltingDuration="17.00" haltingDurationSum="45.00" meanIntervalHaltingDuration="11.25" maxIntervalHaltingDuration="17.00" intervalHaltingDurationSum="45.00" startedHalts="4.00" meanVehicleNumber="1.47" maxVehicleNumber="4" />
   <interval begin="0.00" end="60.00" id="queue_Rup_0" sampledSeconds="17.60" nVehEntered="3" nVehLeft="1" nVehSeen="3" meanSpeed="10.68" meanTimeLoss="0.39" meanOccupancy="1.64" maxOccupancy="11.11" meanMaxJamLengthInVehicles="0.00" meanMaxJamLengthInMeters="0.00" maxJamLengthInVehicles="0" maxJamLengthInMeters="0.00" jamLengthInVehiclesSum="0" jamLengthInMetersSum="0.00" meanHaltingDuration="0.00" maxHaltingDuration="0.00" haltingDurationSum="0.00" meanIntervalHaltingDuration="0.00" maxIntervalHaltingDuration="0.00" intervalHaltingDurationSum="0.00" startedHalts="0.00" meanVehicleNumber="0.32" maxVehicleNumber="2" />
   <interval begin="0.00" end="60.00" id="queue_Rup_1" sampledSeconds="13.08" nVehEntered="2" nVehLeft="1" nVehSeen="2" meanSpeed="8.48" meanTimeLoss="0.77" meanOccupancy="1.28" maxOccupancy="11.11" meanMaxJamLengthInVehicles="0.00" meanMaxJamLengthInMeters="0.00" maxJamLengthInVehicles="0" maxJamLengthInMeters="0.00" jamLengthInVehiclesSum="0" jamLengthInMetersSum="0.00" meanHaltingDuration="0.00" maxHaltingDuration="0.00" haltingDurationSum="0.00" meanIntervalHaltingDuration="0.00" maxIntervalHaltingDuration="0.00" intervalHaltingDurationSum="0.00" startedHalts="0.00" meanVehicleNumber="0.23" maxVehicleNumber="2" />
   <interval begin="0.00" end="60.00" id="queue_Sbound_0" sampledSeconds="36.98" nVehEntered="9" nVehLeft="8" nVehSeen="9" meanSpeed="15.37" meanTimeLoss="0.17" meanOccupancy="4.64" maxOccupancy="8.33" meanMaxJamLengthInVehicles="0.00" meanMaxJamLengthInMeters="0.00" maxJamLengthInVehicles="0" maxJamLengthInMeters="0.00" jamLengthInVehiclesSum="0" jamLengthInMetersSum="0.00" meanHaltingDuration="0.00" maxHaltingDuration="0.00" haltingDurationSum="0.00" meanIntervalHaltingDuration="0.00" maxIntervalHaltingDuration="0.00" intervalHaltingDurationSum="0.00" startedHalts="0.00" meanVehicleNumber="0.75" maxVehicleNumber="1" />
   <interval begin="0.00" end="60.00" id="queue_Sbound_1" sampledSeconds="72.23" nVehEntered="2" nVehLeft="0" nVehSeen="2" meanSpeed="1.66" meanTimeLoss="32.69" meanOccupancy="5.60" maxOccupancy="10.50" meanMaxJamLengthInVehicles="1.00" meanMaxJamLengthInMeters="3.16" maxJamLengthInVehicles="2" maxJamLengthInMeters="8.88" jamLengthInVehiclesSum="60" jamLengthInMetersSum="189.75" meanHaltingDuration="31.00" maxHaltingDuration="43.00" haltingDurationSum="62.00" meanIntervalHaltingDuration="31.00" maxIntervalHaltingDuration="43.00" intervalHaltingDurationSum="62.00" startedHalts="2.00" meanVehicleNumber="1.22" maxVehicleNumber="2" />
   <interval begin="60.00" end="120.00" id="queue_Lup_0" sampledSeconds="174.99" nVehEntered="19" nVehLeft="13" nVehSeen="20" meanSpeed="4.79" meanTimeLoss="6.11" meanOccupancy="22.16" maxOccupancy="53.85" meanMaxJamLengthInVehicles="1.68" meanMaxJamLengthInMeters="10.12" maxJamLengthInVehicles="6" maxJamLengthInMeters="39.82" jamLengthInVehiclesSum="101" jamLengthInMetersSum="607.32" meanHaltingDuration="17.83" maxHaltingDuration="30.00" haltingDurationSum="107.00" meanIntervalHaltingDuration="17.83" maxIntervalHaltingDuration="30.00" intervalHaltingDurationSum="107.00" startedHalts="6.00" meanVehicleNumber="3.17" maxVehicleNumber="7" />
   <interval begin="60.00" end="120.00" id="queue_Lup_1" sampledSeconds="105.35" nVehEntered="7" nVehLeft="1" nVehSeen="7" meanSpeed="1.37" meanTimeLoss="13.78" meanOccupancy="12.14" maxOccupancy="45.52" meanMaxJamLengthInVehicles="1.37" meanMaxJamLengthInMeters="7.58" maxJamLengthInVehicles="5" maxJamLengthInMeters="32.34" jamLengthInVehiclesSum="82" jamLengthInMetersSum="454.64" meanHaltingDuration="17.40" maxHaltingDuration="32.00" haltingDurationSum="87.00" meanIntervalHaltingDuration="17.40" maxIntervalHaltingDuration="32.00" intervalHaltingDurationSum="87.00" startedHalts="5.00" meanVehicleNumber="1.77" maxVehicleNumber="6" />
   <interval begin="60.00" end="120.00" id="queue_Rup_0" sampledSeconds="79.22" nVehEntered="8" nVehLeft="10" nVehSeen="10" meanSpeed="10.34" meanTimeLoss="0.75" meanOccupancy="6.83" maxOccupancy="16.67" meanMaxJamLengthInVehicles="0.00" meanMaxJamLengthInMeters="0.00" maxJamLengthInVehicles="0" maxJamLengthInMeters="0.00" jamLengthInVehiclesSum="0" jamLengthInMetersSum="0.00" meanHaltingDuration="0.00" maxHaltingDuration="0.00" haltingDurationSum="0.00" meanIntervalHaltingDuration="0.00" maxIntervalHaltingDuration="0.00" intervalHaltingDurationSum="0.00" startedHalts="0.00" meanVehicleNumber="1.47" maxVehicleNumber="3" />
   <interval begin="60.00" end="120.00" id="queue_Rup_1" sampledSeconds="73.17" nVehEntered="2" nVehLeft="1" nVehSeen="3" meanSpeed="2.69" meanTimeLoss="18.50" meanOccupancy="5.95" maxOccupancy="9.84" meanMaxJamLengthInVehicles="0.83" meanMaxJamLengthInMeters="4.06" maxJamLengthInVehicles="2" maxJamLengthInMeters="11.36" jamLengthInVehiclesSum="50" jamLengthInMetersSum="243.80" meanHaltingDuration="26.00" maxHaltingDuration="37.00" haltingDurationSum="52.00" meanIntervalHaltingDuration="26.00" maxIntervalHaltingDuration="37.00" intervalHaltingDurationSum="52.00" startedHalts="2.00" meanVehicleNumber="1.25" maxVehicleNumber="2" />
   <interval begin="60.00" end="120.00" id="queue_Sbound_0" sampledSeconds="41.08" nVehEntered="10" nVehLeft="10" nVehSeen="11" meanSpeed="15.75" meanTimeLoss="0.21" meanOccupancy="5.23" maxOccupancy="8.33" meanMaxJamLengthInVehicles="0.00" meanMaxJamLengthInMeters="0.00" maxJamLengthInVehicles="0" maxJamLengthInMeters="0.00" jamLengthInVehiclesSum="0" jamLengthInMetersSum="0.00" meanHaltingDuration="0.00" maxHaltingDuration="0.00" haltingDurationSum="0.00" meanIntervalHaltingDuration="0.00" maxIntervalHaltingDuration="0.00" intervalHaltingDurationSum="0.00" startedHalts="0.00" meanVehicleNumber="0.83" maxVehicleNumber="1" />
   <interval begin="60.00" end="120.00" id="queue_Sbound_1" sampledSeconds="110.07" nVehEntered="3" nVehLeft="5" nVehSeen="5" meanSpeed="1.86" meanTimeLoss="19.62" meanOccupancy="12.02" maxOccupancy="27.17" meanMaxJamLengthInVehicles="1.40" meanMaxJamLengthInMeters="7.46" maxJamLengthInVehicles="3" maxJamLengthInMeters="16.40" jamLengthInVehiclesSum="84" jamLengthInMetersSum="447.76" meanHaltingDuration="37.00" maxHaltingDuration="71.00" haltingDurationSum="148.00" meanIntervalHaltingDuration="21.50" maxIntervalHaltingDuration="29.00" intervalHaltingDurationSum="86.00" startedHalts="2.00" meanVehicleNumber="1.90" maxVehicleNumber="4" />
   <interval begin="120.00" end="180.00" id="queue_Lup_0" sampledSeconds="516.92" nVehEntered="3" nVehLeft="3" nVehSeen="10" meanSpeed="0.09" meanTimeLoss="51.42" meanOccupancy="64.37" maxOccupancy="66.65" meanMaxJamLengthInVehicles="8.40" meanMaxJamLengthInMeters="56.29" maxJamLengthInVehicles="9" maxJamLengthInMeters="60.00" jamLengthInVehiclesSum="504" jamLengthInMetersSum="3377.30" meanHaltingDuration="68.22" maxHaltingDuration="86.00" haltingDurationSum="614.00" meanIntervalHaltingDuration="56.33" maxIntervalHaltingDuration="60.00" intervalHaltingDurationSum="507.00" startedHalts="3.00" meanVehicleNumber="8.67" maxVehicleNumber="9" />
   <interval begin="120.00" end="180.00" id="queue_Lup_1" sampledSeconds="505.44" nVehEntered="3" nVehLeft="1" nVehSeen="9" meanSpeed="0.09" meanTimeLoss="55.87" meanOccupancy="63.02" maxOccupancy="66.65" meanMaxJamLengthInVehicles="8.20" meanMaxJamLengthInMeters="54.95" maxJamLengthInVehicles="9" maxJamLengthInMeters="60.00" jamLengthInVehiclesSum="492" jamLengthInMetersSum="3297.18" meanHaltingDuration="64.78" maxHaltingDuration="88.00" haltingDurationSum="583.00" meanIntervalHaltingDuration="55.11" maxIntervalHaltingDuration="60.00" intervalHaltingDurationSum="496.00" startedHalts="4.00" meanVehicleNumber="8.47" maxVehicleNumber="9" />
   <interval begin="120.00" end="180.00" id="queue_Rup_0" sampledSeconds="82.88" nVehEntered="10" nVehLeft="9" nVehSeen="10" meanSpeed="10.01" meanTimeLoss="0.76" meanOccupancy="7.18" maxOccupancy="14.18" meanMaxJamLengthInVehicles="0.00" meanMaxJamLengthInMeters="0.00" maxJamLengthInVehicles="0" maxJamLengthInMeters="0.00" jamLengthInVehiclesSum="0" jamLengthInMetersSum="0.00" meanHaltingDuration="0.00" maxHaltingDuration="0.00" haltingDurationSum="0.00" meanIntervalHaltingDuration="0.00" maxIntervalHaltingDuration="0.00" intervalHaltingDurationSum="0.00" startedHalts="0.00" meanVehicleNumber="1.53" maxVehicleNumber="3" />
   <interval begin="120.00" end="180.00" id="queue_Rup_1" sampledSeconds="82.51" nVehEntered="4" nVehLeft="5" nVehSeen="6" meanSpeed="3.50" meanTimeLoss="9.73" meanOccupancy="7.06" maxOccupancy="20.95" meanMaxJamLengthInVehicles="0.78" meanMaxJamLengthInMeters="4.66" maxJamLengthInVehicles="3" maxJamLengthInMeters="18.97" jamLengthInVehiclesSum="47" jamLengthInMetersSum="279.37" meanHaltingDuration="33.00" maxHaltingDuration="56.00" haltingDurationSum="99.00" meanIntervalHaltingDuration="15.67" maxIntervalHaltingDuration="20.00" intervalHaltingDurationSum="47.00" startedHalts="2.00" meanVehicleNumber="1.43" maxVehicleNumber="4" />
   <interval begin="120.00" end="180.00" id="queue_Sbound_0" sampledSeconds="38.65" nVehEntered="10" nVehLeft="10" nVehSeen="11" meanSpeed="16.28" meanTimeLoss="0.20" meanOccupancy="5.08" maxOccupancy="8.33" meanMaxJamLengthInVehicles="0.00" meanMaxJamLengthInMeters="0.00" maxJamLengthInVehicles="0" maxJamLengthInMeters="0.00" jamLengthInVehiclesSum="0" jamLengthInMetersSum="0.00" meanHaltingDuration="0.00" maxHaltingDuration="0.00" haltingDurationSum="0.00" meanIntervalHaltingDuration="0.00" maxIntervalHaltingDuration="0.00" intervalHaltingDurationSum="0.00" startedHalts="0.00" meanVehicleNumber="0.80" maxVehicleNumber="1" />
   <interval begin="120.00" end="180.00" id="queue_Sbound_1" sampledSeconds="74.92" nVehEntered="2" nVehLeft="0" nVehSeen="2" meanSpeed="1.60" meanTimeLoss="33.89" meanOccupancy="6.11" maxOccupancy="10.50" meanMaxJamLengthInVehicles="1.03" meanMaxJamLengthInMeters="3.51" maxJamLengthInVehicles="2" maxJamLengthInMeters="8.81" jamLengthInVehiclesSum="62" jamLengthInMetersSum="210.88" meanHaltingDuration="32.00" maxHaltingDuration="42.00" haltingDurationSum="64.00" meanIntervalHaltingDuration="32.00" maxIntervalHaltingDuration="42.00" intervalHaltingDurationSum="64.00" startedHalts="2.00" meanVehicleNumber="1.27" maxVehicleNumber="2" />
   <interval begin="180.00" end="240.00" id="queue_Lup_0" sampledSeconds="232.52" nVehEntered="19" nVehLeft="21" nVehSeen="26" meanSpeed="5.36" meanTimeLoss="5.85" meanOccupancy="29.27" maxOccupancy="54.47" meanMaxJamLengthInVehicles="0.80" meanMaxJamLengthInMeters="4.45" maxJamLengthInVehicles="5" maxJamLengthInMeters="32.99" jamLengthInVehiclesSum="48" jamLengthInMetersSum="267.21" meanHaltingDuration="46.22" maxHaltingDuration="75.00" haltingDurationSum="416.00" meanIntervalHaltingDuration="5.67" maxIntervalHaltingDuration="14.00" intervalHaltingDurationSum="51.00" startedHalts="3.00" meanVehicleNumber="4.23" maxVehicleNumber="7" />
   <interval begin="180.00" end="240.00" id="queue_Lup_1" sampledSeconds="160.94" nVehEntered="17" nVehLeft="22" nVehSeen="25" meanSpeed="7.67" meanTimeLoss="3.49" meanOccupancy="19.25" maxOccupancy="54.47" meanMaxJamLengthInVehicles="0.68" meanMaxJamLengthInMeters="3.31" maxJamLengthInVehicles="5" maxJamLengthInMeters="33.02" jamLengthInVehiclesSum="41" jamLengthInMetersSum="198.36" meanHaltingDuration="42.44" maxHaltingDuration="72.00" haltingDurationSum="382.00" meanIntervalHaltingDuration="4.89" maxIntervalHaltingDuration="17.00" intervalHaltingDurationSum="44.00" startedHalts="3.00" meanVehicleNumber="3.00" maxVehicleNumber="8" />
   <interval begin="180.00" end="240.00" id="queue_Rup_0" sampledSeconds="71.33" nVehEntered="9" nVehLeft="8" nVehSeen="10" meanSpeed="10.38" meanTimeLoss="0.59" meanOccupancy="6.26" maxOccupancy="11.62" meanMaxJamLengthInVehicles="0.00" meanMaxJamLengthInMeters="0.00" maxJamLengthInVehicles="0" maxJamLengthInMeters="0.00" jamLengthInVehiclesSum="0" jamLengthInMetersSum="0.00" meanHaltingDuration="0.00" maxHaltingDuration="0.00" haltingDurationSum="0.00" meanIntervalHaltingDuration="0.00" maxIntervalHaltingDuration="0.00" intervalHaltingDurationSum="0.00" startedHalts="0.00" meanVehicleNumber="1.30" maxVehicleNumber="3" />
   <interval begin="180.00" end="240.00" id="queue_Rup_1" sampledSeconds="60.53" nVehEntered="3" nVehLeft="2" nVehSeen="4" meanSpeed="4.04" meanTimeLoss="10.09" meanOccupancy="4.54" maxOccupancy="9.84" meanMaxJamLengthInVehicles="0.55" meanMaxJamLengthInMeters="1.94" maxJamLengthInVehicles="1" maxJamLengthInMeters="3.85" jamLengthInVehiclesSum="33" jamLengthInMetersSum="116.43" meanHaltingDuration="17.50" maxHaltingDuration="22.00" haltingDurationSum="35.00" meanIntervalHaltingDuration="17.50" maxIntervalHaltingDuration="22.00" intervalHaltingDurationSum="35.00" startedHalts="2.00" meanVehicleNumber="1.05" maxVehicleNumber="2" />
   <interval begin="180.00" end="240.00" id="queue_Sbound_0" sampledSeconds="40.80" nVehEntered="10" nVehLeft="10" nVehSeen="11" meanSpeed="16.04" meanTimeLoss="0.23" meanOccupancy="5.22" maxOccupancy="8.33" meanMaxJamLengthInVehicles="0.00" meanMaxJamLengthInMeters="0.00" maxJamLengthInVehicles="0" maxJamLengthInMeters="0.00" jamLengthInVehiclesSum="0" jamLengthInMetersSum="0.00" meanHaltingDuration="0.00" maxHaltingDuration="0.00" haltingDurationSum="0.00" meanIntervalHaltingDuration="0.00" maxIntervalHaltingDuration="0.00" intervalHaltingDurationSum="0.00" startedHalts="0.00" meanVehicleNumber="0.85" maxVehicleNumber="1" />
   <interval begin="180.00" end="240.00" id="queue_Sbound_1" sampledSeconds="180.72" nVehEntered="3" nVehLeft="5" nVehSeen="5" meanSpeed="1.13" meanTimeLoss="33.76" meanOccupancy="19.97" maxOccupancy="27.17" meanMaxJamLengthInVehicles="2.48" meanMaxJamLengthInMeters="13.82" maxJamLengthInVehicles="4" maxJamLengthInMeters="23.80" jamLengthInVehiclesSum="149" jamLengthInMetersSum="828.90" meanHaltingDuration="53.75" maxHaltingDuration="87.00" haltingDurationSum="215.00" meanIntervalHaltingDuration="37.75" maxIntervalHaltingDuration="46.00" intervalHaltingDurationSum="151.00" startedHalts="2.00" meanVehicleNumber="3.07" maxVehicleNumber="4" />
   <interval begin="240.00" end="300.00" id="queue_Lup_0" sampledSeconds="463.71" nVehEntered="7" nVehLeft="3" nVehSeen="12" meanSpeed="0.29" meanTimeLoss="37.98" meanOccupancy="58.32" maxOccupancy="66.65" meanMaxJamLengthInVehicles="7.35" meanMaxJamLengthInMeters="48.86" maxJamLengthInVehicles="9" maxJamLengthInMeters="60.00" jamLengthInVehiclesSum="441" jamLengthInMetersSum="2931.82" meanHaltingDuration="53.11" maxHaltingDuration="74.00" haltingDurationSum="478.00" meanIntervalHaltingDuration="49.67" maxIntervalHaltingDuration="60.00" intervalHaltingDurationSum="447.00" startedHalts="6.00" meanVehicleNumber="7.80" maxVehicleNumber="9" />
   <interval begin="240.00" end="300.00" id="queue_Lup_1" sampledSeconds="430.68" nVehEntered="6" nVehLeft="0" nVehSeen="9" meanSpeed="0.20" meanTimeLoss="47.29" meanOccupancy="53.93" maxOccupancy="66.65" meanMaxJamLengthInVehicles="6.88" meanMaxJamLengthInMeters="45.60" maxJamLengthInVehicles="9" maxJamLengthInMeters="60.00" jamLengthInVehiclesSum="413" jamLengthInMetersSum="2735.72" meanHaltingDuration="49.55" maxHaltingDuration="77.00" haltingDurationSum="446.00" meanIntervalHaltingDuration="46.55" maxIntervalHaltingDuration="60.00" intervalHaltingDurationSum="419.00" startedHalts="6.00" meanVehicleNumber="7.20" maxVehicleNumber="9" />
   <interval begin="240.00" end="300.00" id="queue_Rup_0" sampledSeconds="79.08" nVehEntered="8" nVehLeft="9" nVehSeen="10" meanSpeed="10.87" meanTimeLoss="0.60" meanOccupancy="6.94" maxOccupancy="16.67" meanMaxJamLengthInVehicles="0.00" meanMaxJamLengthInMeters="0.00" maxJamLengthInVehicles="0" maxJamLengthInMeters="0.00" jamLengthInVehiclesSum="0" jamLengthInMetersSum="0.00" meanHaltingDuration="0.00" maxHaltingDuration="0.00" haltingDurationSum="0.00" meanIntervalHaltingDuration="0.00" maxIntervalHaltingDuration="0.00" intervalHaltingDurationSum="0.00" startedHalts="0.00" meanVehicleNumber="1.45" maxVehicleNumber="3" />
   <interval begin="240.00" end="300.00" id="queue_Rup_1" sampledSeconds="94.33" nVehEntered="2" nVehLeft="3" nVehSeen="4" meanSpeed="2.20" meanTimeLoss="18.83" meanOccupancy="7.77" maxOccupancy="15.39" meanMaxJamLengthInVehicles="1.13" meanMaxJamLengthInMeters="6.29" maxJamLengthInVehicles="2" maxJamLengthInMeters="11.45" jamLengthInVehiclesSum="68" jamLengthInMetersSum="377.47" meanHaltingDuration="45.50" maxHaltingDuration="57.00" haltingDurationSum="91.00" meanIntervalHaltingDuration="34.50" maxIntervalHaltingDuration="35.00" intervalHaltingDurationSum="69.00" startedHalts="1.00" meanVehicleNumber="1.62" maxVehicleNumber="3" />
   <interval begin="240.00" end="300.00" id="queue_Sbound_0" sampledSeconds="39.92" nVehEntered="9" nVehLeft="10" nVehSeen="10" meanSpeed="15.57" meanTimeLoss="0.22" meanOccupancy="5.00" maxOccupancy="8.33" meanMaxJamLengthInVehicles="0.00" meanMaxJamLengthInMeters="0.00" maxJamLengthInVehicles="0" maxJamLengthInMeters="0.00" jamLengthInVehiclesSum="0" jamLengthInMetersSum="0.00" meanHaltingDuration="0.00" maxHaltingDuration="0.00" haltingDurationSum="0.00" meanIntervalHaltingDuration="0.00" maxIntervalHaltingDuration="0.00" intervalHaltingDurationSum="0.00" startedHalts="0.00" meanVehicleNumber="0.87" maxVehicleNumber="2" />
   <interval begin="240.00" end="300.00" id="queue_Sbound_1" sampledSeconds="32.07" nVehEntered="3" nVehLeft="1" nVehSeen="3" meanSpeed="5.01" meanTimeLoss="7.48" meanOccupancy="2.25" maxOccupancy="10.50" meanMaxJamLengthInVehicles="0.32" meanMaxJamLengthInMeters="0.41" maxJamLengthInVehicles="1" maxJamLengthInMeters="1.30" jamLengthInVehiclesSum="19" jamLengthInMetersSum="24.73" meanHaltingDuration="20.00" maxHaltingDuration="20.00" haltingDurationSum="20.00" meanIntervalHaltingDuration="20.00" maxIntervalHaltingDuration="20.00" intervalHaltingDurationSum="20.00" startedHalts="1.00" meanVehicleNumber="0.57" maxVehicleNumber="2" />
   <interval begin="300.00" end="360.00" id="queue_Lup_0" sampledSeconds="333.02" nVehEntered="13" nVehLeft="20" nVehSeen="22" meanSpeed="3.17" meanTimeLoss="12.15" meanOccupancy="41.74" maxOccupancy="66.65" meanMaxJamLengthInVehicles="2.72" meanMaxJamLengthInMeters="18.07" maxJamLengthInVehicles="9" maxJamLengthInMeters="60.00" jamLengthInVehiclesSum="163" jamLengthInMetersSum="1084.41" meanHaltingDuration="71.22" maxHaltingDuration="87.00" haltingDurationSum="641.00" meanIntervalHaltingDuration="18.11" maxIntervalHaltingDuration="23.00" intervalHaltingDurationSum="163.00" startedHalts="0.00" meanVehicleNumber="5.85" maxVehicleNumber="9" />
   <interval begin="300.00" end="360.00" id="queue_Lup_1" sampledSeconds="280.83" nVehEntered="15" nVehLeft="23" nVehSeen="24" meanSpeed="4.34" meanTimeLoss="8.60" meanOccupancy="34.65" maxOccupancy="66.65" meanMaxJamLengthInVehicles="2.73" meanMaxJamLengthInMeters="18.18" maxJamLengthInVehicles="9" maxJamLengthInMeters="60.00" jamLengthInVehiclesSum="164" jamLengthInMetersSum="1091.07" meanHaltingDuration="67.78" maxHaltingDuration="90.00" haltingDurationSum="610.00" meanIntervalHaltingDuration="18.22" maxIntervalHaltingDuration="23.00" intervalHaltingDurationSum="164.00" startedHalts="0.00" meanVehicleNumber="4.98" maxVehicleNumber="9" />
   <interval begin="300.00" end="360.00" id="queue_Rup_0" sampledSeconds="59.71" nVehEntered="8" nVehLeft="8" nVehSeen="9" meanSpeed="9.44" meanTimeLoss="0.74" meanOccupancy="5.05" maxOccupancy="12.53" meanMaxJamLengthInVehicles="0.00" meanMaxJamLengthInMeters="0.00" maxJamLengthInVehicles="0" maxJamLengthInMeters="0.00" jamLengthInVehiclesSum="0" jamLengthInMetersSum="0.00" meanHaltingDuration="0.00" maxHaltingDuration="0.00" haltingDurationSum="0.00" meanIntervalHaltingDuration="0.00" maxIntervalHaltingDuration="0.00" intervalHaltingDurationSum="0.00" startedHalts="0.00" meanVehicleNumber="1.13" maxVehicleNumber="3" />
   <interval begin="300.00" end="360.00" id="queue_Rup_1" sampledSeconds="47.34" nVehEntered="5" nVehLeft="4" nVehSeen="6" meanSpeed="8.18" meanTimeLoss="2.20" meanOccupancy="4.09" maxOccupancy="11.11" meanMaxJamLengthInVehicles="0.08" meanMaxJamLengthInMeters="0.32" maxJamLengthInVehicles="1" maxJamLengthInMeters="3.93" jamLengthInVehiclesSum="5" jamLengthInMetersSum="19.38" meanHaltingDuration="5.00" maxHaltingDuration="5.00" haltingDurationSum="5.00" meanIntervalHaltingDuration="5.00" maxIntervalHaltingDuration="5.00" intervalHaltingDurationSum="5.00" startedHalts="3.00" meanVehicleNumber="0.85" maxVehicleNumber="2" />
   <interval begin="300.00" end="360.00" id="queue_Sbound_0" sampledSeconds="40.73" nVehEntered="11" nVehLeft="10" nVehSeen="11" meanSpeed="16.20" meanTimeLoss="0.27" meanOccupancy="5.16" maxOccupancy="8.33" meanMaxJamLengthInVehicles="0.00" meanMaxJamLengthInMeters="0.00" maxJamLengthInVehicles="0" maxJamLengthInMeters="0.00" jamLengthInVehiclesSum="0" jamLengthInMetersSum="0.00" meanHaltingDuration="0.00" maxHaltingDuration="0.00" haltingDurationSum="0.00" meanIntervalHaltingDuration="0.00" maxIntervalHaltingDuration="0.00" intervalHaltingDurationSum="0.00" startedHalts="0.00" meanVehicleNumber="0.87" maxVehicleNumber="2" />
   <interval begin="300.00" end="360.00" id="queue_Sbound_1" sampledSeconds="164.34" nVehEntered="2" nVehLeft="0" nVehSeen="4" meanSpeed="0.69" meanTimeLoss="39.52" meanOccupancy="16.75" maxOccupancy="27.17" meanMaxJamLengthInVehicles="2.50" meanMaxJamLengthInMeters="12.55" maxJamLengthInVehicles="4" maxJamLengthInMeters="23.81" jamLengthInVehiclesSum="150" jamLengthInMetersSum="753.18" meanHaltingDuration="43.25" maxHaltingDuration="80.00" haltingDurationSum="173.00" meanIntervalHaltingDuration="38.25" maxIntervalHaltingDuration="60.00" intervalHaltingDurationSum="153.00" startedHalts="3.00" meanVehicleNumber="2.75" maxVehicleNumber="4" />
   <interval begin="360.00" end="420.00" id="queue_Lup_0" sampledSeconds="347.58" nVehEntered="14" nVehLeft="7" nVehSeen="16" meanSpeed="1.11" meanTimeLoss="20.30" meanOccupancy="44.08" maxOccupancy="66.65" meanMaxJamLengthInVehicles="4.98" meanMaxJamLengthInMeters="32.37" maxJamLengthInVehicles="9" maxJamLengthInMeters="60.00" jamLengthInVehiclesSum="299" jamLengthInMetersSum="1942.08" meanHaltingDuration="34.22" maxHaltingDuration="55.00" haltingDurationSum="308.00" meanIntervalHaltingDuration="34.22" maxIntervalHaltingDuration="55.00" intervalHaltingDurationSum="308.00" startedHalts="9.00" meanVehicleNumber="5.93" maxVehicleNumber="9" />
   <interval begin="360.00" end="420.00" id="queue_Lup_1" sampledSeconds="294.96" nVehEntered="8" nVehLeft="0" nVehSeen="9" meanSpeed="0.45" meanTimeLoss="31.86" meanOccupancy="36.19" maxOccupancy="66.65" meanMaxJamLengthInVehicles="4.42" meanMaxJamLengthInMeters="28.01" maxJamLengthInVehicles="9" maxJamLengthInMeters="60.00" jamLengthInVehiclesSum="265" jamLengthInMetersSum="1680.68" meanHaltingDuration="30.44" maxHaltingDuration="58.00" haltingDurationSum="274.00" meanIntervalHaltingDuration="30.44" maxIntervalHaltingDuration="58.00" intervalHaltingDurationSum="274.00" startedHalts="9.00" meanVehicleNumber="4.93" maxVehicleNumber="9" />
   <interval begin="360.00" end="420.00" id="queue_Rup_0" sampledSeconds="83.59" nVehEntered="10" nVehLeft="10" nVehSeen="11" meanSpeed="10.07" meanTimeLoss="0.69" meanOccupancy="7.30" maxOccupancy="11.11" meanMaxJamLengthInVehicles="0.00" meanMaxJamLengthInMeters="0.00" maxJamLengthInVehicles="0" maxJamLengthInMeters="0.00" jamLengthInVehiclesSum="0" jamLengthInMetersSum="0.00" meanHaltingDuration="0.00" maxHaltingDuration="0.00" haltingDurationSum="0.00" meanIntervalHaltingDuration="0.00" maxIntervalHaltingDuration="0.00" intervalHaltingDurationSum="0.00" startedHalts="0.00" meanVehicleNumber="1.55" maxVehicleNumber="3" />
   <interval begin="360.00" end="420.00" id="queue_Rup_1" sampledSeconds="107.71" nVehEntered="2" nVehLeft="4" nVehSeen="4" meanSpeed="1.96" meanTimeLoss="21.79" meanOccupancy="8.58" maxOccupancy="15.39" meanMaxJamLengthInVehicles="1.33" meanMaxJamLengthInMeters="6.75" maxJamLengthInVehicles="2" maxJamLengthInMeters="11.73" jamLengthInVehiclesSum="80" jamLengthInMetersSum="404.88" meanHaltingDuration="42.00" maxHaltingDuration="58.00" haltingDurationSum="84.00" meanIntervalHaltingDuration="39.50" maxIntervalHaltingDuration="53.00" intervalHaltingDurationSum="79.00" startedHalts="2.00" meanVehicleNumber="1.85" maxVehicleNumber="3" />
   <interval begin="360.00" end="420.00" id="queue_Sbound_0" sampledSeconds="43.64" nVehEntered="9" nVehLeft="10" nVehSeen="10" meanSpeed="14.67" meanTimeLoss="0.24" meanOccupancy="5.56" maxOccupancy="8.33" meanMaxJamLengthInVehicles="0.00" meanMaxJamLengthInMeters="0.00" maxJamLengthInVehicles="0" maxJamLengthInMeters="0.00" jamLengthInVehiclesSum="0" jamLengthInMetersSum="0.00" meanHaltingDuration="0.00" maxHaltingDuration="0.00" haltingDurationSum="0.00" meanIntervalHaltingDuration="0.00" maxIntervalHaltingDuration="0.00" intervalHaltingDurationSum="0.00" startedHalts="0.00" meanVehicleNumber="0.88" maxVehicleNumber="2" />
   <interval begin="360.00" end="420.00" id="queue_Sbound_1" sampledSeconds="36.63" nVehEntered="3" nVehLeft="6" nVehSeen="7" meanSpeed="5.28" meanTimeLoss="3.55" meanOccupancy="4.32" maxOccupancy="27.17" meanMaxJamLengthInVehicles="0.27" meanMaxJamLengthInMeters="1.64" maxJamLengthInVehicles="4" maxJamLengthInMeters="23.80" jamLengthInVehiclesSum="16" jamLengthInMetersSum="98.63" meanHaltingDuration="47.25" maxHaltingDuration="82.00" haltingDurationSum="189.00" meanIntervalHaltingDuration="4.00" maxIntervalHaltingDuration="6.00" intervalHaltingDurationSum="16.00" startedHalts="0.00" meanVehicleNumber="0.68" maxVehicleNumber="4" />
   <interval begin="420.00" end="480.00" id="queue_Lup_0" sampledSeconds="429.90" nVehEntered="7" nVehLeft="11" nVehSeen="16" meanSpeed="1.40" meanTimeLoss="24.54" meanOccupancy="53.55" maxOccupancy="66.65" meanMaxJamLengthInVehicles="5.37" meanMaxJamLengthInMeters="35.81" maxJamLengthInVehicles="9" maxJamLengthInMeters="60.00" jamLengthInVehiclesSum="322" jamLengthInMetersSum="2148.55" meanHaltingDuration="63.10" maxHaltingDuration="86.00" haltingDurationSum="631.00" meanIntervalHaltingDuration="32.30" maxIntervalHaltingDuration="41.00" intervalHaltingDurationSum="323.00" startedHalts="1.00" meanVehicleNumber="7.33" maxVehicleNumber="9" />
   <interval begin="420.00" end="480.00" id="queue_Lup_1" sampledSeconds="402.98" nVehEntered="9" nVehLeft="16" nVehSeen="18" meanSpeed="2.00" meanTimeLoss="19.71" meanOccupancy="49.88" maxOccupancy="66.65" meanMaxJamLengthInVehicles="5.27" meanMaxJamLengthInMeters="35.07" maxJamLengthInVehicles="9" maxJamLengthInMeters="60.00" jamLengthInVehiclesSum="316" jamLengthInMetersSum="2104.24" meanHaltingDuration="65.56" maxHaltingDuration="88.00" haltingDurationSum="590.00" meanIntervalHaltingDuration="35.11" maxIntervalHaltingDuration="40.00" intervalHaltingDurationSum="316.00" startedHalts="0.00" meanVehicleNumber="6.93" maxVehicleNumber="9" />