<?xml version="1.0" encoding="UTF-8"?>

<!-- generated on 2026-05-25T01:39:20.554243+08:00 by Eclipse SUMO GUI 1.26.0
<sumoConfiguration xmlns:xsi="http://www.w3.org/2001/XMLSchema-instance" xsi:noNamespaceSchemaLocation="http://sumo.dlr.de/xsd/sumoConfiguration.xsd">

    <input>
        <net-file value="C:\Users\mmmma\TrafficProject\baseline_cases\midday_baseline_case\initial8_network.net.xml"/>
        <route-files value="C:\Users\mmmma\TrafficProject\baseline_cases\midday_baseline_case\routes_midday.rou.xml"/>
        <additional-files value="C:\Users\mmmma\TrafficProject\baseline_cases\midday_baseline_case\detectors.add.xml"/>
    </input>

    <output>
        <tripinfo-output value="C:\Users\mmmma\TrafficProject\baseline_cases\midday_baseline_case\outputs_midday/tripinfo.xml"/>
        <edgedata-output value="C:\Users\mmmma\TrafficProject\baseline_cases\midday_baseline_case\outputs_midday/edge_data.xml"/>
    </output>

    <time>
        <begin value="0"/>
        <end value="3600"/>
    </time>

    <gui_only>
        <start value="true"/>
    </gui_only>

</sumoConfiguration>
-->

<tripinfos xmlns:xsi="http://www.w3.org/2001/XMLSchema-instance" xsi:noNamespaceSchemaLocation="http://sumo.dlr.de/xsd/tripinfo_file.xsd">
    <tripinfo id="MD_Sbound_straight.0" depart="0.00" departLane="southbound_lanes_0" departPos="5.10" departSpeed="0.00" departDelay="0.00" arrival="23.00" arrivalLane="Ldown_0" arrivalPos="161.93" arrivalSpeed="16.53" duration="23.00" routeLength="305.87" waitingTime="0.00" waitingCount="0" stopTime="0.00" timeLoss="3.89" rerouteNo="0" devices="tripinfo_MD_Sbound_straight.0 routing_MD_Sbound_straight.0" vType="car" speedFactor="1.01" vaporized=""/>
    <tripinfo id="MD_Sbound_straight.1" depart="7.00" departLane="southbound_lanes_0" departPos="5.10" departSpeed="0.00" departDelay="0.95" arrival="32.00" arrivalLane="Ldown_0" arrivalPos="161.93" arrivalSpeed="13.58" duration="25.00" routeLength="305.87" waitingTime="0.00" waitingCount="0" stopTime="0.00" timeLoss="4.20" rerouteNo="0" devices="tripinfo_MD_Sbound_straight.1 routing_MD_Sbound_straight.1" vType="car" speedFactor="0.89" vaporized=""/>
    <tripinfo id="MD_Sbound_straight.2" depart="13.00" departLane="southbound_lanes_0" departPos="5.10" departSpeed="0.00" departDelay="0.90" arrival="36.00" arrivalLane="Ldown_0" arrivalPos="161.93" arrivalSpeed="16.80" duration="23.00" routeLength="305.87" waitingTime="0.00" waitingCount="0" stopTime="0.00" timeLoss="4.60" rerouteNo="0" devices="tripinfo_MD_Sbound_straight.2 routing_MD_Sbound_straight.2" vType="car" speedFactor="1.03" vaporized=""/>
    <tripinfo id="MD_Sbound_straight.3" depart="19.00" departLane="southbound_lanes_0" departPos="5.10" departSpeed="0.00" departDelay="0.85" arrival="43.00" arrivalLane="Ldown_0" arrivalPos="161.93" arrivalSpeed="14.73" duration="24.00" routeLength="305.87" waitingTime="0.00" waitingCount="0" stopTime="0.00" timeLoss="3.96" rerouteNo="0" devices="tripinfo_MD_Sbound_straight.3 routing_MD_Sbound_straight.3" vType="car" speedFactor="0.93" vaporized=""/>
    <tripinfo id="MD_Sbound_straight.4" depart="25.00" departLane="southbound_lanes_0" departPos="5.10" departSpeed="0.00" departDelay="0.80" arrival="46.00" arrivalLane="Ldown_0" arrivalPos="161.93" arrivalSpeed="18.35" duration="21.00" routeLength="305.87" waitingTime="0.00" waitingCount="0" stopTime="0.00" timeLoss="4.87" rerouteNo="0" devices="tripinfo_MD_Sbound_straight.4 routing_MD_Sbound_straight.4" vType="car" speedFactor="1.16" vaporized=""/>
    <tripinfo id="MD_Lup_straight.0" depart="0.00" departLane="Lup_0" departPos="5.10" departSpeed="0.00" departDelay="0.00" arrival="51.00" arrivalLane="northbound_lanes_0" arrivalPos="122.67" arrivalSpeed="17.52" duration="51.00" routeLength="311.00" waitingTime="21.00" waitingCount="1" stopTime="0.00" timeLoss="32.99" rerouteNo="0" devices="tripinfo_MD_Lup_straight.0 routing_MD_Lup_straight.0" vType="car" speedFactor="1.06" vaporized=""/>
    <tripinfo id="MD_Lup_straight.1" depart="6.00" departLane="Lup_0" departPos="5.10" departSpeed="0.00" departDelay="1.97" arrival="51.00" arrivalLane="northbound_lanes_1" arrivalPos="122.67" arrivalSpeed="16.41" duration="45.00" routeLength="311.00" waitingTime="15.00" waitingCount="1" stopTime="0.00" timeLoss="27.03" rerouteNo="0" devices="tripinfo_MD_Lup_straight.1 routing_MD_Lup_straight.1" vType="car" speedFactor="1.05" vaporized=""/>
    <tripinfo id="MD_Lup_straight.2" depart="9.00" departLane="Lup_0" departPos="5.10" departSpeed="0.00" departDelay="0.93" arrival="55.00" arrivalLane="northbound_lanes_1" arrivalPos="122.67" arrivalSpeed="13.92" duration="46.00" routeLength="311.00" waitingTime="13.00" waitingCount="1" stopTime="0.00" timeLoss="23.49" rerouteNo="0" devices="tripinfo_MD_Lup_straight.2 routing_MD_Lup_straight.2" vType="car" speedFactor="0.86" vaporized=""/>
    <tripinfo id="MD_Lup_straight.3" depart="13.00" departLane="Lup_0" departPos="5.10" departSpeed="0.00" departDelay="0.90" arrival="55.00" arrivalLane="northbound_lanes_0" arrivalPos="122.67" arrivalSpeed="17.67" duration="42.00" routeLength="311.00" waitingTime="11.00" waitingCount="1" stopTime="0.00" timeLoss="24.48" rerouteNo="0" devices="tripinfo_MD_Lup_straight.3 routing_MD_Lup_straight.3" vType="car" speedFactor="1.09" vaporized=""/>
    <tripinfo id="MD_Lup_straight.4" depart="17.00" departLane="Lup_0" departPos="5.10" departSpeed="0.00" departDelay="0.86" arrival="56.00" arrivalLane="northbound_lanes_1" arrivalPos="122.67" arrivalSpeed="15.55" duration="39.00" routeLength="311.00" waitingTime="7.00" waitingCount="1" stopTime="0.00" timeLoss="22.27" rerouteNo="0" devices="tripinfo_MD_Lup_straight.4 routing_MD_Lup_straight.4" vType="car" speedFactor="1.12" vaporized=""/>
    <tripinfo id="MD_Rup_major.0" depart="0.00" departLane="Rup_0" departPos="5.10" departSpeed="0.00" departDelay="0.00" arrival="57.00" arrivalLane="northbound_lanes_0" arrivalPos="122.67" arrivalSpeed="17.00" duration="57.00" routeLength="637.97" waitingTime="0.00" waitingCount="0" stopTime="0.00" timeLoss="5.24" rerouteNo="0" devices="tripinfo_MD_Rup_major.0 routing_MD_Rup_major.0" vType="car" speedFactor="1.03" vaporized=""/>
    <tripinfo id="MD_Lup_straight.5" depart="23.00" departLane="Lup_0" departPos="5.10" departSpeed="0.00" departDelay="2.83" arrival="58.00" arrivalLane="northbound_lanes_1" arrivalPos="122.67" arrivalSpeed="14.53" duration="35.00" routeLength="311.00" waitingTime="2.00" waitingCount="1" stopTime="0.00" timeLoss="13.42" rerouteNo="0" devices="tripinfo_MD_Lup_straight.5 routing_MD_Lup_straight.5" vType="car" speedFactor="0.88" vaporized=""/>
    <tripinfo id="MD_Sbound_straight.5" depart="31.00" departLane="southbound_lanes_0" departPos="5.10" departSpeed="0.00" departDelay="0.75" arrival="58.00" arrivalLane="Ldown_0" arrivalPos="161.93" arrivalSpeed="13.36" duration="27.00" routeLength="305.87" waitingTime="0.00" waitingCount="0" stopTime="0.00" timeLoss="3.91" rerouteNo="0" devices="tripinfo_MD_Sbound_straight.5 routing_MD_Sbound_straight.5" vType="car" speedFactor="0.83" vaporized=""/>
    <tripinfo id="MD_Lup_straight.7" depart="29.00" departLane="Lup_0" departPos="5.10" departSpeed="0.00" departDelay="0.76" arrival="60.00" arrivalLane="northbound_lanes_1" arrivalPos="122.67" arrivalSpeed="14.37" duration="31.00" routeLength="311.00" waitingTime="0.00" waitingCount="0" stopTime="0.00" timeLoss="9.39" rerouteNo="0" devices="tripinfo_MD_Lup_straight.7 routing_MD_Lup_straight.7" vType="car" speedFactor="0.89" vaporized=""/>
    <tripinfo id="MD_Lup_straight.6" depart="26.00" departLane="Lup_0" departPos="5.10" departSpeed="0.00" departDelay="1.79" arrival="61.00" arrivalLane="northbound_lanes_0" arrivalPos="122.67" arrivalSpeed="14.85" duration="35.00" routeLength="311.00" waitingTime="2.00" waitingCount="1" stopTime="0.00" timeLoss="14.36" rerouteNo="0" devices="tripinfo_MD_Lup_straight.6 routing_MD_Lup_straight.6" vType="car" speedFactor="0.94" vaporized=""/>
    <tripinfo id="MD_Sbound_straight.6" depart="37.00" departLane="southbound_lanes_0" departPos="5.10" departSpeed="0.00" departDelay="0.70" arrival="61.00" arrivalLane="Ldown_0" arrivalPos="161.93" arrivalSpeed="14.55" duration="24.00" routeLength="305.87" waitingTime="0.00" waitingCount="0" stopTime="0.00" timeLoss="4.15" rerouteNo="0" devices="tripinfo_MD_Sbound_straight.6 routing_MD_Sbound_straight.6" vType="car" speedFactor="0.93" vaporized=""/>
    <tripinfo id="MD_Lup_straight.8" depart="33.00" departLane="Lup_0" departPos="5.10" departSpeed="0.00" departDelay="0.72" arrival="62.00" arrivalLane="northbound_lanes_1" arrivalPos="122.67" arrivalSpeed="13.82" duration="29.00" routeLength="311.00" waitingTime="0.00" waitingCount="0" stopTime="0.00" timeLoss="6.84" rerouteNo="0" devices="tripinfo_MD_Lup_straight.8 routing_MD_Lup_straight.8" vType="car" speedFactor="0.87" vaporized=""/>
    <tripinfo id="MD_Lup_straight.9" depart="39.00" departLane="Lup_0" departPos="5.10" departSpeed="0.00" departDelay="2.69" arrival="63.00" arrivalLane="northbound_lanes_1" arrivalPos="122.67" arrivalSpeed="17.15" duration="24.00" routeLength="311.00" waitingTime="0.00" waitingCount="0" stopTime="0.00" timeLoss="7.26" rerouteNo="0" devices="tripinfo_MD_Lup_straight.9 routing_MD_Lup_straight.9" vType="car" speedFactor="1.13" vaporized=""/>
    <tripinfo id="MD_Lup_straight.10" depart="42.00" departLane="Lup_0" departPos="5.10" departSpeed="0.00" departDelay="1.65" arrival="65.00" arrivalLane="northbound_lanes_0" arrivalPos="122.67" arrivalSpeed="19.13" duration="23.00" routeLength="311.00" waitingTime="0.00" waitingCount="0" stopTime="0.00" timeLoss="6.24" rerouteNo="0" devices="tripinfo_MD_Lup_straight.10 routing_MD_Lup_straight.10" vType="car" speedFactor="1.18" vaporized=""/>
    <tripinfo id="MD_Sbound_straight.7" depart="43.00" departLane="southbound_lanes_0" departPos="5.10" departSpeed="0.00" departDelay="0.65" arrival="66.00" arrivalLane="Ldown_0" arrivalPos="161.93" arrivalSpeed="16.15" duration="23.00" routeLength="305.87" waitingTime="0.00" waitingCount="0" stopTime="0.00" timeLoss="4.47" rerouteNo="0" devices="tripinfo_MD_Sbound_straight.7 routing_MD_Sbound_straight.7" vType="car" speedFactor="1.01" vaporized=""/>
    <tripinfo id="MD_Lup_straight.11" depart="45.00" departLane="Lup_0" departPos="5.10" departSpeed="0.00" departDelay="0.62" arrival="67.00" arrivalLane="northbound_lanes_0" arrivalPos="122.67" arrivalSpeed="19.09" duration="22.00" routeLength="311.00" waitingTime="0.00" waitingCount="0" stopTime="0.00" timeLoss="5.24" rerouteNo="0" devices="tripinfo_MD_Lup_straight.11 routing_MD_Lup_straight.11" vType="car" speedFactor="1.17" vaporized=""/>
    <tripinfo id="MD_Rup_major.2" depart="14.00" departLane="Rup_0" departPos="5.10" departSpeed="0.00" departDelay="0.15" arrival="71.00" arrivalLane="northbound_lanes_0" arrivalPos="122.67" arrivalSpeed="16.72" duration="57.00" routeLength="637.97" waitingTime="0.00" waitingCount="0" stopTime="0.00" timeLoss="5.56" rerouteNo="0" devices="tripinfo_MD_Rup_major.2 routing_MD_Rup_major.2" vType="car" speedFactor="1.05" vaporized=""/>
    <tripinfo id="MD_Sbound_straight.8" depart="49.00" departLane="southbound_lanes_0" departPos="5.10" departSpeed="0.00" departDelay="0.60" arrival="72.00" arrivalLane="Ldown_0" arrivalPos="161.93" arrivalSpeed="15.76" duration="23.00" routeLength="305.87" waitingTime="0.00" waitingCount="0" stopTime="0.00" timeLoss="4.10" rerouteNo="0" devices="tripinfo_MD_Sbound_straight.8 routing_MD_Sbound_straight.8" vType="car" speedFactor="0.97" vaporized=""/>
    <tripinfo id="MD_Lup_straight.12" depart="49.00" departLane="Lup_0" departPos="5.10" departSpeed="0.00" departDelay="0.58" arrival="73.00" arrivalLane="northbound_lanes_0" arrivalPos="122.67" arrivalSpeed="15.70" duration="24.00" routeLength="311.00" waitingTime="0.00" waitingCount="0" stopTime="0.00" timeLoss="4.67" rerouteNo="0" devices="tripinfo_MD_Lup_straight.12 routing_MD_Lup_straight.12" vType="car" speedFactor="0.99" vaporized=""/>
    <tripinfo id="MD_Sbound_straight.9" depart="55.00" departLane="southbound_lanes_0" departPos="5.10" departSpeed="0.00" departDelay="0.55" arrival="78.00" arrivalLane="Ldown_0" arrivalPos="161.93" arrivalSpeed="16.05" duration="23.00" routeLength="305.87" waitingTime="0.00" waitingCount="0" stopTime="0.00" timeLoss="4.60" rerouteNo="0" devices="tripinfo_MD_Sbound_straight.9 routing_MD_Sbound_straight.9" vType="car" speedFactor="1.03" vaporized=""/>
    <tripinfo id="MD_Rup_major.1" depart="7.00" departLane="Rup_0" departPos="5.10" departSpeed="0.00" departDelay="0.08" arrival="79.00" arrivalLane="northbound_lanes_0" arrivalPos="122.67" arrivalSpeed="14.36" duration="72.00" routeLength="637.97" waitingTime="1.00" waitingCount="1" stopTime="0.00" timeLoss="14.52" rerouteNo="0" devices="tripinfo_MD_Rup_major.1 routing_MD_Rup_major.1" vType="car" speedFactor="0.94" vaporized=""/>
    <tripinfo id="MD_Lup_straight.13" depart="55.00" departLane="Lup_0" departPos="5.10" departSpeed="0.00" departDelay="2.55" arrival="80.00" arrivalLane="northbound_lanes_1" arrivalPos="122.67" arrivalSpeed="14.14" duration="25.00" routeLength="311.00" waitingTime="0.00" waitingCount="0" stopTime="0.00" timeLoss="4.15" rerouteNo="0" devices="tripinfo_MD_Lup_straight.13 routing_MD_Lup_straight.13" vType="car" speedFactor="0.90" vaporized=""/>
    <tripinfo id="MD_Lup_straight.14" depart="58.00" departLane="Lup_0" departPos="5.10" departSpeed="0.00" departDelay="1.51" arrival="81.00" arrivalLane="northbound_lanes_0" arrivalPos="122.67" arrivalSpeed="16.32" duration="23.00" routeLength="311.00" waitingTime="0.00" waitingCount="0" stopTime="0.00" timeLoss="4.30" rerouteNo="0" devices="tripinfo_MD_Lup_straight.14 routing_MD_Lup_straight.14" vType="car" speedFactor="1.04" vaporized=""/>
    <tripinfo id="MD_Rup_major.3" depart="21.00" departLane="Rup_0" departPos="5.10" departSpeed="0.00" departDelay="0.23" arrival="83.00" arrivalLane="northbound_lanes_0" arrivalPos="122.67" arrivalSpeed="14.41" duration="62.00" routeLength="637.97" waitingTime="0.00" waitingCount="0" stopTime="0.00" timeLoss="5.42" rerouteNo="0" devices="tripinfo_MD_Rup_major.3 routing_MD_Rup_major.3" vType="car" speedFactor="0.94" vaporized=""/>
    <tripinfo id="MD_Sbound_straight.10" depart="61.00" departLane="southbound_lanes_0" departPos="5.10" departSpeed="0.00" departDelay="0.50" arrival="83.00" arrivalLane="Ldown_0" arrivalPos="161.93" arrivalSpeed="17.35" duration="22.00" routeLength="305.87" waitingTime="0.00" waitingCount="0" stopTime="0.00" timeLoss="4.90" rerouteNo="0" devices="tripinfo_MD_Sbound_straight.10 routing_MD_Sbound_straight.10" vType="car" speedFactor="1.09" vaporized=""/>
    <tripinfo id="MD_Lup_straight.15" depart="61.00" departLane="Lup_0" departPos="5.10" departSpeed="0.00" departDelay="0.48" arrival="85.00" arrivalLane="northbound_lanes_0" arrivalPos="122.67" arrivalSpeed="16.17" duration="24.00" routeLength="311.00" waitingTime="0.00" waitingCount="0" stopTime="0.00" timeLoss="5.55" rerouteNo="0" devices="tripinfo_MD_Lup_straight.15 routing_MD_Lup_straight.15" vType="car" speedFactor="1.04" vaporized=""/>
    <tripinfo id="MD_Rup_major.4" depart="28.00" departLane="Rup_0" departPos="5.10" departSpeed="0.00" departDelay="0.31" arrival="87.00" arrivalLane="northbound_lanes_0" arrivalPos="122.67" arrivalSpeed="16.27" duration="59.00" routeLength="637.97" waitingTime="0.00" waitingCount="0" stopTime="0.00" timeLoss="6.19" rerouteNo="0" devices="tripinfo_MD_Rup_major.4 routing_MD_Rup_major.4" vType="car" speedFactor="1.01" vaporized=""/>
    <tripinfo id="MD_Lup_straight.16" depart="65.00" departLane="Lup_0" departPos="5.10" departSpeed="0.00" departDelay="0.44" arrival="90.00" arrivalLane="northbound_lanes_0" arrivalPos="122.67" arrivalSpeed="14.48" duration="25.00" routeLength="311.00" waitingTime="0.00" waitingCount="0" stopTime="0.00" timeLoss="4.15" rerouteNo="0" devices="tripinfo_MD_Lup_straight.16 routing_MD_Lup_straight.16" vType="car" speedFactor="0.90" vaporized=""/>
    <tripinfo id="MD_Sbound_straight.11" depart="67.00" departLane="southbound_lanes_0" departPos="5.10" departSpeed="0.00" departDelay="0.45" arrival="92.00" arrivalLane="Ldown_0" arrivalPos="161.93" arrivalSpeed="13.92" duration="25.00" routeLength="305.87" waitingTime="0.00" waitingCount="0" stopTime="0.00" timeLoss="3.37" rerouteNo="0" devices="tripinfo_MD_Sbound_straight.11 routing_MD_Sbound_straight.11" vType="car" speedFactor="0.85" vaporized=""/>
    <tripinfo id="MD_Lup_turn.0" depart="3.00" departLane="Lup_0" departPos="5.10" departSpeed="0.00" departDelay="3.00" arrival="95.00" arrivalLane="Rdown_0" arrivalPos="493.55" arrivalSpeed="9.31" duration="92.00" routeLength="663.62" waitingTime="18.00" waitingCount="1" stopTime="0.00" timeLoss="32.32" rerouteNo="0" devices="tripinfo_MD_Lup_turn.0 routing_MD_Lup_turn.0" vType="car" speedFactor="0.94" vaporized=""/>
    <tripinfo id="MD_Sbound_straight.12" depart="73.00" departLane="southbound_lanes_0" departPos="5.10" departSpeed="0.00" departDelay="0.40" arrival="95.00" arrivalLane="Ldown_0" arrivalPos="161.93" arrivalSpeed="17.19" duration="22.00" routeLength="305.87" waitingTime="0.00" waitingCount="0" stopTime="0.00" timeLoss="4.41" rerouteNo="0" devices="tripinfo_MD_Sbound_straight.12 routing_MD_Sbound_straight.12" vType="car" speedFactor="1.10" vaporized=""/>
    <tripinfo id="MD_Lup_turn.1" depart="20.00" departLane="Lup_0" departPos="5.10" departSpeed="0.00" departDelay="3.86" arrival="97.00" arrivalLane="Rdown_0" arrivalPos="493.55" arrivalSpeed="10.44" duration="77.00" routeLength="663.62" waitingTime="7.00" waitingCount="1" stopTime="0.00" timeLoss="20.22" rerouteNo="0" devices="tripinfo_MD_Lup_turn.1 routing_MD_Lup_turn.1" vType="car" speedFactor="0.99" vaporized=""/>
    <tripinfo id="MD_Rup_major.5" depart="35.00" departLane="Rup_0" departPos="5.10" departSpeed="0.00" departDelay="0.39" arrival="97.00" arrivalLane="northbound_lanes_0" arrivalPos="122.67" arrivalSpeed="15.42" duration="62.00" routeLength="637.97" waitingTime="0.00" waitingCount="0" stopTime="0.00" timeLoss="5.52" rerouteNo="0" devices="tripinfo_MD_Rup_major.5 routing_MD_Rup_major.5" vType="car" speedFactor="0.95" vaporized=""/>
    <tripinfo id="MD_Rup_major.6" depart="42.00" departLane="Rup_0" departPos="5.10" departSpeed="0.00" departDelay="0.46" arrival="99.00" arrivalLane="northbound_lanes_0" arrivalPos="122.67" arrivalSpeed="18.86" duration="57.00" routeLength="637.97" waitingTime="0.00" waitingCount="0" stopTime="0.00" timeLoss="9.93" rerouteNo="0" devices="tripinfo_MD_Rup_major.6 routing_MD_Rup_major.6" vType="car" speedFactor="1.15" vaporized=""/>
    <tripinfo id="MD_Sbound_straight.13" depart="79.00" departLane="southbound_lanes_0" departPos="5.10" departSpeed="0.00" departDelay="0.35" arrival="100.00" arrivalLane="Ldown_0" arrivalPos="161.93" arrivalSpeed="18.07" duration="21.00" routeLength="305.87" waitingTime="0.00" waitingCount="0" stopTime="0.00" timeLoss="4.66" rerouteNo="0" devices="tripinfo_MD_Sbound_straight.13 routing_MD_Sbound_straight.13" vType="car" speedFactor="1.14" vaporized=""/>
    <tripinfo id="MD_Rup_major.7" depart="49.00" departLane="Rup_0" departPos="5.10" departSpeed="0.00" departDelay="0.54" arrival="103.00" arrivalLane="northbound_lanes_0" arrivalPos="122.67" arrivalSpeed="18.18" duration="54.00" routeLength="637.97" waitingTime="0.00" waitingCount="0" stopTime="0.00" timeLoss="5.36" rerouteNo="0" devices="tripinfo_MD_Rup_major.7 routing_MD_Rup_major.7" vType="car" speedFactor="1.10" vaporized=""/>
    <tripinfo id="MD_Lup_turn.2" depart="36.00" departLane="Lup_0" departPos="5.10" departSpeed="0.00" departDelay="3.71" arrival="108.00" arrivalLane="Rdown_0" arrivalPos="493.55" arrivalSpeed="10.16" duration="72.00" routeLength="663.62" waitingTime="0.00" waitingCount="0" stopTime="0.00" timeLoss="10.76" rerouteNo="0" devices="tripinfo_MD_Lup_turn.2 routing_MD_Lup_turn.2" vType="car" speedFactor="0.92" vaporized=""/>
    <tripinfo id="MD_Sbound_straight.14" depart="85.00" departLane="southbound_lanes_0" departPos="5.10" departSpeed="0.00" departDelay="0.30" arrival="109.00" arrivalLane="Ldown_0" arrivalPos="161.93" arrivalSpeed="16.25" duration="24.00" routeLength="305.87" waitingTime="0.00" waitingCount="0" stopTime="0.00" timeLoss="4.83" rerouteNo="0" devices="tripinfo_MD_Sbound_straight.14 routing_MD_Sbound_straight.14" vType="car" speedFactor="0.99" vaporized=""/>
    <tripinfo id="MD_Lup_turn.3" depart="52.00" departLane="Lup_0" departPos="5.10" departSpeed="0.00" departDelay="3.57" arrival="116.00" arrivalLane="Rdown_0" arrivalPos="493.55" arrivalSpeed="10.73" duration="64.00" routeLength="663.62" waitingTime="0.00" waitingCount="0" stopTime="0.00" timeLoss="8.65" rerouteNo="0" devices="tripinfo_MD_Lup_turn.3 routing_MD_Lup_turn.3" vType="car" speedFactor="1.02" vaporized=""/>
    <tripinfo id="MD_Sbound_straight.15" depart="91.00" departLane="southbound_lanes_0" departPos="5.10" departSpeed="0.00" departDelay="0.25" arrival="116.00" arrivalLane="Ldown_0" arrivalPos="161.93" arrivalSpeed="14.79" duration="25.00" routeLength="305.87" waitingTime="0.00" waitingCount="0" stopTime="0.00" timeLoss="4.03" rerouteNo="0" devices="tripinfo_MD_Sbound_straight.15 routing_MD_Sbound_straight.15" vType="car" speedFactor="0.91" vaporized=""/>
    <tripinfo id="MD_Rup_major.8" depart="56.00" departLane="Rup_0" departPos="5.10" departSpeed="0.00" departDelay="0.62" arrival="118.00" arrivalLane="northbound_lanes_0" arrivalPos="122.67" arrivalSpeed="15.09" duration="62.00" routeLength="637.97" waitingTime="0.00" waitingCount="0" stopTime="0.00" timeLoss="5.81" rerouteNo="0" devices="tripinfo_MD_Rup_major.8 routing_MD_Rup_major.8" vType="car" speedFactor="0.96" vaporized=""/>
    <tripinfo id="MD_Sbound_straight.16" depart="97.00" departLane="southbound_lanes_0" departPos="5.10" departSpeed="0.00" departDelay="0.20" arrival="120.00" arrivalLane="Ldown_0" arrivalPos="161.93" arrivalSpeed="16.05" duration="23.00" routeLength="305.87" waitingTime="0.00" waitingCount="0" stopTime="0.00" timeLoss="4.65" rerouteNo="0" devices="tripinfo_MD_Sbound_straight.16 routing_MD_Sbound_straight.16" vType="car" speedFactor="1.02" vaporized=""/>
    <tripinfo id="MD_Rup_major.9" depart="63.00" departLane="Rup_0" departPos="5.10" departSpeed="0.00" departDelay="0.69" arrival="123.00" arrivalLane="northbound_lanes_0" arrivalPos="122.67" arrivalSpeed="16.00" duration="60.00" routeLength="637.97" waitingTime="0.00" waitingCount="0" stopTime="0.00" timeLoss="5.81" rerouteNo="0" devices="tripinfo_MD_Rup_major.9 routing_MD_Rup_major.9" vType="car" speedFactor="1.00" vaporized=""/>
    <tripinfo id="MD_Rup_major.10" depart="70.00" departLane="Rup_0" departPos="5.10" departSpeed="0.00" departDelay="0.77" arrival="124.00" arrivalLane="northbound_lanes_0" arrivalPos="122.67" arrivalSpeed="17.83" duration="54.00" routeLength="637.97" waitingTime="0.00" waitingCount="0" stopTime="0.00" timeLoss="8.14" rerouteNo="0" devices="tripinfo_MD_Rup_major.10 routing_MD_Rup_major.10" vType="car" speedFactor="1.17" vaporized=""/>
    <tripinfo id="MD_Sbound_straight.17" depart="103.00" departLane="southbound_lanes_0" departPos="5.10" departSpeed="0.00" departDelay="0.15" arrival="127.00" arrivalLane="Ldown_0" arrivalPos="161.93" arrivalSpeed="15.85" duration="24.00" routeLength="305.87" waitingTime="0.00" waitingCount="0" stopTime="0.00" timeLoss="4.18" rerouteNo="0" devices="tripinfo_MD_Sbound_straight.17 routing_MD_Sbound_straight.17" vType="car" speedFactor="0.96" vaporized=""/>
    <tripinfo id="MD_Sbound_straight.18" depart="109.00" departLane="southbound_lanes_0" departPos="5.10" departSpeed="0.00" departDelay="0.10" arrival="132.00" arrivalLane="Ldown_0" arrivalPos="161.93" arrivalSpeed="16.62" duration="23.00" routeLength="305.87" waitingTime="0.00" waitingCount="0" stopTime="0.00" timeLoss="4.63" rerouteNo="0" devices="tripinfo_MD_Sbound_straight.18 routing_MD_Sbound_straight.18" vType="car" speedFactor="1.01" vaporized=""/>
    <tripinfo id="MD_Sbound_turn.0" depart="3.00" departLane="southbound_lanes_0" departPos="5.10" departSpeed="0.00" departDelay="3.00" arrival="138.00" arrivalLane="Rdown_0" arrivalPos="493.55" arrivalSpeed="11.86" duration="135.00" routeLength="643.45" waitingTime="71.00" waitingCount="1" stopTime="0.00" timeLoss="84.70" rerouteNo="0" devices="tripinfo_MD_Sbound_turn.0 routing_MD_Sbound_turn.0" vType="car" speedFactor="1.08" vaporized=""/>
    <tripinfo id="MD_Sbound_straight.19" depart="115.00" departLane="southbound_lanes_0" departPos="5.10" departSpeed="0.00" departDelay="0.05" arrival="139.00" arrivalLane="Ldown_0" arrivalPos="161.93" arrivalSpeed="15.26" duration="24.00" routeLength="305.87" waitingTime="0.00" waitingCount="0" stopTime="0.00" timeLoss="4.57" rerouteNo="0" devices="tripinfo_MD_Sbound_straight.19 routing_MD_Sbound_straight.19" vType="car" speedFactor="0.97" vaporized=""/>
    <tripinfo id="MD_Sbound_turn.2" depart="52.00" departLane="southbound_lanes_0" departPos="5.10" departSpeed="0.00" departDelay="3.68" arrival="140.00" arrivalLane="Rdown_1" arrivalPos="493.55" arrivalSpeed="12.83" duration="88.00" routeLength="643.45" waitingTime="23.00" waitingCount="1" stopTime="0.00" timeLoss="41.42" rerouteNo="0" devices="tripinfo_MD_Sbound_turn.2 routing_MD_Sbound_turn.2" vType="car" speedFactor="1.18" vaporized=""/>
    <tripinfo id="MD_Lup_turn.4" depart="68.00" departLane="Lup_0" departPos="5.10" departSpeed="0.00" departDelay="3.43" arrival="140.00" arrivalLane="Rdown_0" arrivalPos="493.55" arrivalSpeed="9.54" duration="72.00" routeLength="663.62" waitingTime="0.00" waitingCount="0" stopTime="0.00" timeLoss="7.96" rerouteNo="0" devices="tripinfo_MD_Lup_turn.4 routing_MD_Lup_turn.4" vType="car" speedFactor="0.88" vaporized=""/>
    <tripinfo id="MD_Sbound_turn.1" depart="28.00" departLane="southbound_lanes_0" departPos="5.10" departSpeed="0.00" departDelay="3.84" arrival="142.00" arrivalLane="Rdown_1" arrivalPos="493.55" arrivalSpeed="10.70" duration="114.00" routeLength="643.45" waitingTime="46.00" waitingCount="1" stopTime="0.00" timeLoss="60.38" rerouteNo="0" devices="tripinfo_MD_Sbound_turn.1 routing_MD_Sbound_turn.1" vType="car" speedFactor="1.02" vaporized=""/>
    <tripinfo id="MD_Rup_major.11" depart="77.00" departLane="Rup_0" departPos="5.10" departSpeed="0.00" departDelay="0.85" arrival="143.00" arrivalLane="northbound_lanes_0" arrivalPos="122.67" arrivalSpeed="14.81" duration="66.00" routeLength="637.97" waitingTime="0.00" waitingCount="0" stopTime="0.00" timeLoss="6.20" rerouteNo="0" devices="tripinfo_MD_Rup_major.11 routing_MD_Rup_major.11" vType="car" speedFactor="0.90" vaporized=""/>
    <tripinfo id="MD_Rup_major.12" depart="84.00" departLane="Rup_0" departPos="5.10" departSpeed="0.00" departDelay="0.92" arrival="145.00" arrivalLane="northbound_lanes_0" arrivalPos="122.67" arrivalSpeed="17.17" duration="61.00" routeLength="637.97" waitingTime="1.00" waitingCount="1" stopTime="0.00" timeLoss="10.81" rerouteNo="0" devices="tripinfo_MD_Rup_major.12 routing_MD_Rup_major.12" vType="car" speedFactor="1.08" vaporized=""/>
    <tripinfo id="MD_Sbound_straight.20" depart="121.00" departLane="southbound_lanes_0" departPos="5.10" departSpeed="0.00" departDelay="0.00" arrival="145.00" arrivalLane="Ldown_0" arrivalPos="161.93" arrivalSpeed="15.44" duration="24.00" routeLength="305.87" waitingTime="0.00" waitingCount="0" stopTime="0.00" timeLoss="5.04" rerouteNo="0" devices="tripinfo_MD_Sbound_straight.20 routing_MD_Sbound_straight.20" vType="car" speedFactor="1.00" vaporized=""/>
    <tripinfo id="MD_Sbound_turn.3" depart="76.00" departLane="southbound_lanes_0" departPos="5.10" departSpeed="0.00" departDelay="3.52" arrival="148.00" arrivalLane="Rdown_0" arrivalPos="493.55" arrivalSpeed="10.55" duration="72.00" routeLength="643.45" waitingTime="0.00" waitingCount="0" stopTime="0.00" timeLoss="17.81" rerouteNo="0" devices="tripinfo_MD_Sbound_turn.3 routing_MD_Sbound_turn.3" vType="car" speedFactor="1.00" vaporized=""/>
    <tripinfo id="MD_Sbound_straight.21" depart="128.00" departLane="southbound_lanes_0" departPos="5.10" departSpeed="0.00" departDelay="0.95" arrival="153.00" arrivalLane="Ldown_0" arrivalPos="161.93" arrivalSpeed="14.38" duration="25.00" routeLength="305.87" waitingTime="0.00" waitingCount="0" stopTime="0.00" timeLoss="4.31" rerouteNo="0" devices="tripinfo_MD_Sbound_straight.21 routing_MD_Sbound_straight.21" vType="car" speedFactor="0.89" vaporized=""/>
    <tripinfo id="MD_Rup_minor.0" depart="3.00" departLane="Rup_0" departPos="5.10" departSpeed="0.00" departDelay="3.00" arrival="154.00" arrivalLane="Ldown_1" arrivalPos="161.93" arrivalSpeed="13.65" duration="151.00" routeLength="677.17" waitingTime="71.00" waitingCount="1" stopTime="0.00" timeLoss="82.59" rerouteNo="0" devices="tripinfo_MD_Rup_minor.0 routing_MD_Rup_minor.0" vType="car" speedFactor="0.83" vaporized=""/>
    <tripinfo id="MD_Rup_minor.1" depart="31.00" departLane="Rup_0" departPos="5.10" departSpeed="0.00" departDelay="3.31" arrival="156.00" arrivalLane="Ldown_1" arrivalPos="161.93" arrivalSpeed="15.29" duration="125.00" routeLength="677.17" waitingTime="53.00" waitingCount="1" stopTime="0.00" timeLoss="66.30" rerouteNo="0" devices="tripinfo_MD_Rup_minor.1 routing_MD_Rup_minor.1" vType="car" speedFactor="0.97" vaporized=""/>
    <tripinfo id="MD_Rup_minor.2" depart="59.00" departLane="Rup_0" departPos="5.10" departSpeed="0.00" departDelay="3.62" arrival="157.00" arrivalLane="Ldown_1" arrivalPos="161.93" arrivalSpeed="18.00" duration="98.00" routeLength="677.17" waitingTime="33.00" waitingCount="1" stopTime="0.00" timeLoss="45.93" rerouteNo="0" devices="tripinfo_MD_Rup_minor.2 routing_MD_Rup_minor.2" vType="car" speedFactor="1.09" vaporized=""/>